/*--------------------------------*- C++ -*----------------------------------*\
  =========                 |
  \\      /  F ield         | OpenFOAM: The Open Source CFD Toolbox
   \\    /   O peration     | Website:  https://openfoam.org
    \\  /    A nd           | Version:  7
     \\/     M anipulation  |
\*---------------------------------------------------------------------------*/
FoamFile
{
    version     2.0;
    format      ascii;
    class       volScalarField;
    location    "5761";
    object      mix:alpha;
}
// * * * * * * * * * * * * * * * * * * * * * * * * * * * * * * * * * * * * * //

dimensions      [0 2 -1 0 0 0 0];

internalField   nonuniform List<scalar> 
27600
(
4.56962e-05
4.56969e-05
4.56978e-05
4.56992e-05
4.57011e-05
4.57038e-05
4.57071e-05
4.57113e-05
4.57165e-05
4.57226e-05
4.573e-05
4.57386e-05
4.57483e-05
4.57595e-05
4.5772e-05
4.5786e-05
4.58015e-05
4.58185e-05
4.58372e-05
4.58577e-05
4.58799e-05
4.59041e-05
4.593e-05
4.59579e-05
4.59878e-05
4.60197e-05
4.60538e-05
4.60899e-05
4.61283e-05
4.61688e-05
4.62117e-05
4.6257e-05
4.63044e-05
4.63543e-05
4.64065e-05
4.64612e-05
4.65184e-05
4.65781e-05
4.66401e-05
4.67047e-05
4.67719e-05
4.68416e-05
4.69138e-05
4.69886e-05
4.70659e-05
4.71458e-05
4.72282e-05
4.73134e-05
4.74011e-05
4.74911e-05
4.75839e-05
4.76793e-05
4.77774e-05
4.78779e-05
4.79807e-05
4.80863e-05
4.81944e-05
4.8305e-05
4.8418e-05
4.85336e-05
4.86515e-05
4.87718e-05
4.88945e-05
4.90195e-05
4.91468e-05
4.92764e-05
4.94082e-05
4.95422e-05
4.96783e-05
4.98165e-05
4.99568e-05
5.00991e-05
5.02434e-05
5.03896e-05
5.05376e-05
5.06878e-05
5.08396e-05
5.09932e-05
5.11486e-05
5.13056e-05
5.14645e-05
5.1625e-05
5.17871e-05
5.19509e-05
5.21164e-05
5.22834e-05
5.24518e-05
5.26217e-05
5.27933e-05
5.29663e-05
5.31407e-05
5.33166e-05
5.34939e-05
5.36727e-05
5.38528e-05
5.40342e-05
5.42172e-05
5.44014e-05
5.45869e-05
5.47737e-05
5.49617e-05
5.51511e-05
5.53419e-05
5.55338e-05
5.57269e-05
5.59214e-05
5.61169e-05
5.63138e-05
5.65119e-05
5.6711e-05
5.69115e-05
5.7113e-05
5.73157e-05
5.75195e-05
5.77245e-05
5.79307e-05
5.81379e-05
5.83462e-05
5.85555e-05
5.87659e-05
5.89773e-05
5.91899e-05
5.94033e-05
5.96178e-05
5.98331e-05
6.00494e-05
6.02666e-05
6.04846e-05
6.07033e-05
6.09229e-05
6.11433e-05
6.13642e-05
6.15857e-05
6.18078e-05
6.20305e-05
6.22538e-05
6.24774e-05
6.27016e-05
6.2926e-05
6.31507e-05
6.33759e-05
6.36012e-05
6.38269e-05
6.40528e-05
6.4279e-05
6.45053e-05
6.47317e-05
6.49584e-05
6.51853e-05
6.54122e-05
6.56392e-05
6.58665e-05
6.60939e-05
6.63214e-05
6.65491e-05
6.67768e-05
6.70046e-05
6.72327e-05
6.74609e-05
6.76892e-05
6.79178e-05
6.81465e-05
6.83755e-05
6.86046e-05
6.88339e-05
6.90636e-05
6.92934e-05
6.95237e-05
6.97541e-05
6.99848e-05
7.02158e-05
7.04471e-05
7.06787e-05
7.09108e-05
7.1143e-05
7.13757e-05
7.16087e-05
7.1842e-05
7.20756e-05
7.23098e-05
7.2544e-05
7.2779e-05
7.3014e-05
7.32496e-05
7.34855e-05
7.37217e-05
7.39582e-05
7.41953e-05
7.44326e-05
7.46705e-05
7.49085e-05
7.5147e-05
7.53858e-05
7.56251e-05
7.58648e-05
7.61049e-05
7.63454e-05
7.6586e-05
7.68271e-05
7.70686e-05
7.73104e-05
7.75525e-05
7.77952e-05
7.80377e-05
7.82808e-05
7.8524e-05
7.87673e-05
7.90109e-05
7.92544e-05
7.94983e-05
7.97418e-05
7.99854e-05
8.02289e-05
8.04721e-05
8.07152e-05
8.09579e-05
8.12002e-05
8.14421e-05
8.16833e-05
8.1924e-05
8.21641e-05
8.24031e-05
8.26414e-05
8.28789e-05
8.3115e-05
8.33502e-05
8.3584e-05
8.38166e-05
8.40476e-05
8.42773e-05
8.45053e-05
8.47317e-05
8.49563e-05
8.51791e-05
8.54002e-05
8.56194e-05
8.58369e-05
8.60534e-05
8.62697e-05
8.64882e-05
4.56962e-05
4.56969e-05
4.56978e-05
4.56994e-05
4.57013e-05
4.57039e-05
4.57074e-05
4.57118e-05
4.5717e-05
4.57235e-05
4.5731e-05
4.57396e-05
4.57497e-05
4.57611e-05
4.57739e-05
4.57881e-05
4.5804e-05
4.58213e-05
4.58404e-05
4.58612e-05
4.58838e-05
4.59083e-05
4.59348e-05
4.5963e-05
4.59935e-05
4.60257e-05
4.60602e-05
4.60969e-05
4.61358e-05
4.61769e-05
4.62204e-05
4.62661e-05
4.63142e-05
4.63647e-05
4.64174e-05
4.64728e-05
4.65305e-05
4.65907e-05
4.66535e-05
4.67187e-05
4.67865e-05
4.68568e-05
4.69297e-05
4.70051e-05
4.7083e-05
4.71637e-05
4.72466e-05
4.73323e-05
4.74208e-05
4.75115e-05
4.76051e-05
4.77009e-05
4.77996e-05
4.79006e-05
4.80044e-05
4.81106e-05
4.82191e-05
4.83305e-05
4.84441e-05
4.85602e-05
4.86787e-05
4.87995e-05
4.89228e-05
4.90484e-05
4.91763e-05
4.93064e-05
4.94388e-05
4.95732e-05
4.97098e-05
4.98486e-05
4.99894e-05
5.01322e-05
5.02769e-05
5.04237e-05
5.05723e-05
5.07227e-05
5.08748e-05
5.1029e-05
5.11848e-05
5.13423e-05
5.15016e-05
5.16625e-05
5.18249e-05
5.19891e-05
5.21548e-05
5.23222e-05
5.24908e-05
5.26612e-05
5.2833e-05
5.30063e-05
5.31812e-05
5.33574e-05
5.35349e-05
5.37139e-05
5.38944e-05
5.40761e-05
5.42591e-05
5.44437e-05
5.46294e-05
5.48165e-05
5.50048e-05
5.51946e-05
5.53854e-05
5.55776e-05
5.57709e-05
5.59657e-05
5.61614e-05
5.63586e-05
5.65567e-05
5.67562e-05
5.69568e-05
5.71586e-05
5.73616e-05
5.75656e-05
5.77708e-05
5.79771e-05
5.81844e-05
5.83929e-05
5.86025e-05
5.88131e-05
5.90246e-05
5.92373e-05
5.94509e-05
5.96655e-05
5.9881e-05
6.00976e-05
6.03148e-05
6.05329e-05
6.07517e-05
6.09714e-05
6.11918e-05
6.14128e-05
6.16345e-05
6.18567e-05
6.20794e-05
6.23026e-05
6.25263e-05
6.27503e-05
6.29748e-05
6.31996e-05
6.34247e-05
6.365e-05
6.38757e-05
6.41017e-05
6.43278e-05
6.4554e-05
6.47805e-05
6.5007e-05
6.52339e-05
6.54607e-05
6.56878e-05
6.5915e-05
6.61422e-05
6.63698e-05
6.65973e-05
6.68251e-05
6.70529e-05
6.72809e-05
6.7509e-05
6.77373e-05
6.79658e-05
6.81945e-05
6.84234e-05
6.86525e-05
6.8882e-05
6.91115e-05
6.93414e-05
6.95715e-05
6.9802e-05
7.00325e-05
7.02636e-05
7.04949e-05
7.07266e-05
7.09586e-05
7.11908e-05
7.14234e-05
7.16565e-05
7.18896e-05
7.21233e-05
7.23573e-05
7.25918e-05
7.28267e-05
7.30618e-05
7.32972e-05
7.35332e-05
7.37692e-05
7.4006e-05
7.42429e-05
7.44803e-05
7.47181e-05
7.49561e-05
7.51945e-05
7.54334e-05
7.56726e-05
7.59121e-05
7.61522e-05
7.63926e-05
7.66333e-05
7.68743e-05
7.71158e-05
7.73575e-05
7.75996e-05
7.78419e-05
7.80845e-05
7.83275e-05
7.85705e-05
7.88139e-05
7.90571e-05
7.93007e-05
7.95442e-05
7.97875e-05
8.0031e-05
8.02741e-05
8.05171e-05
8.076e-05
8.10023e-05
8.12443e-05
8.1486e-05
8.17268e-05
8.19673e-05
8.22068e-05
8.24457e-05
8.26838e-05
8.29207e-05
8.31567e-05
8.33914e-05
8.36248e-05
8.3857e-05
8.40876e-05
8.43169e-05
8.45445e-05
8.47705e-05
8.49947e-05
8.52171e-05
8.54379e-05
8.56567e-05
8.58741e-05
8.60901e-05
8.6306e-05
8.65243e-05
4.56962e-05
4.56969e-05
4.5698e-05
4.56996e-05
4.57017e-05
4.57045e-05
4.57081e-05
4.57128e-05
4.57184e-05
4.57251e-05
4.5733e-05
4.57422e-05
4.57527e-05
4.57646e-05
4.57779e-05
4.5793e-05
4.58094e-05
4.58276e-05
4.58474e-05
4.58691e-05
4.58926e-05
4.59179e-05
4.59451e-05
4.59745e-05
4.60057e-05
4.60392e-05
4.60748e-05
4.61127e-05
4.61527e-05
4.6195e-05
4.62396e-05
4.62865e-05
4.63358e-05
4.63875e-05
4.64417e-05
4.64982e-05
4.65573e-05
4.66189e-05
4.66829e-05
4.67495e-05
4.68186e-05
4.68905e-05
4.69646e-05
4.70415e-05
4.71208e-05
4.72028e-05
4.72874e-05
4.73745e-05
4.74642e-05
4.75564e-05
4.76512e-05
4.77487e-05
4.78487e-05
4.79512e-05
4.80562e-05
4.81639e-05
4.82739e-05
4.83864e-05
4.85014e-05
4.86189e-05
4.87386e-05
4.88608e-05
4.89854e-05
4.91123e-05
4.92413e-05
4.93728e-05
4.95062e-05
4.96419e-05
4.97797e-05
4.99194e-05
5.00613e-05
5.02052e-05
5.0351e-05
5.04986e-05
5.06482e-05
5.07995e-05
5.09527e-05
5.11077e-05
5.12644e-05
5.14228e-05
5.15829e-05
5.17445e-05
5.19079e-05
5.20727e-05
5.22393e-05
5.24073e-05
5.25768e-05
5.2748e-05
5.29205e-05
5.30945e-05
5.32698e-05
5.34468e-05
5.3625e-05
5.38047e-05
5.39857e-05
5.41681e-05
5.43518e-05
5.45368e-05
5.4723e-05
5.49108e-05
5.50996e-05
5.52899e-05
5.54814e-05
5.5674e-05
5.58679e-05
5.6063e-05
5.62594e-05
5.64568e-05
5.66557e-05
5.68555e-05
5.70566e-05
5.72589e-05
5.74622e-05
5.76667e-05
5.78723e-05
5.80789e-05
5.82867e-05
5.84955e-05
5.87056e-05
5.89166e-05
5.91286e-05
5.93414e-05
5.95555e-05
5.97703e-05
5.99861e-05
6.02028e-05
6.04204e-05
6.06389e-05
6.0858e-05
6.10778e-05
6.12985e-05
6.15197e-05
6.17414e-05
6.19637e-05
6.21866e-05
6.24099e-05
6.26336e-05
6.28577e-05
6.30821e-05
6.3307e-05
6.35321e-05
6.37574e-05
6.3983e-05
6.42089e-05
6.4435e-05
6.46611e-05
6.48875e-05
6.5114e-05
6.53407e-05
6.55674e-05
6.57944e-05
6.60215e-05
6.62487e-05
6.6476e-05
6.67035e-05
6.69312e-05
6.71588e-05
6.73867e-05
6.76149e-05
6.7843e-05
6.80714e-05
6.83e-05
6.85288e-05
6.87579e-05
6.89873e-05
6.92168e-05
6.94466e-05
6.96766e-05
6.9907e-05
7.01377e-05
7.03687e-05
7.05998e-05
7.08316e-05
7.10635e-05
7.12957e-05
7.15284e-05
7.17612e-05
7.19945e-05
7.22281e-05
7.24623e-05
7.26967e-05
7.29315e-05
7.31665e-05
7.34019e-05
7.36378e-05
7.3874e-05
7.41105e-05
7.43476e-05
7.45847e-05
7.48224e-05
7.50606e-05
7.52988e-05
7.55377e-05
7.57768e-05
7.60163e-05
7.62561e-05
7.64964e-05
7.6737e-05
7.69779e-05
7.72192e-05
7.74608e-05
7.77027e-05
7.79449e-05
7.81872e-05
7.84298e-05
7.86726e-05
7.89156e-05
7.91586e-05
7.94017e-05
7.96448e-05
7.98877e-05
8.01306e-05
8.03734e-05
8.06159e-05
8.0858e-05
8.11e-05
8.13413e-05
8.15822e-05
8.18225e-05
8.20622e-05
8.23011e-05
8.25393e-05
8.27764e-05
8.30126e-05
8.32476e-05
8.34816e-05
8.37142e-05
8.39456e-05
8.41754e-05
8.44039e-05
8.46306e-05
8.48558e-05
8.50792e-05
8.53008e-05
8.55208e-05
8.57387e-05
8.59553e-05
8.61707e-05
8.6386e-05
8.66034e-05
4.56964e-05
4.56971e-05
4.56982e-05
4.56999e-05
4.57022e-05
4.57053e-05
4.57093e-05
4.57142e-05
4.57204e-05
4.57277e-05
4.57363e-05
4.57461e-05
4.57574e-05
4.577e-05
4.57844e-05
4.58003e-05
4.58178e-05
4.58371e-05
4.58582e-05
4.5881e-05
4.59059e-05
4.59327e-05
4.59614e-05
4.59921e-05
4.6025e-05
4.60601e-05
4.60973e-05
4.61367e-05
4.61785e-05
4.62225e-05
4.62691e-05
4.63177e-05
4.63691e-05
4.64227e-05
4.64788e-05
4.65374e-05
4.65985e-05
4.66621e-05
4.67282e-05
4.67969e-05
4.68681e-05
4.69418e-05
4.70183e-05
4.70972e-05
4.71787e-05
4.72629e-05
4.73495e-05
4.74388e-05
4.75307e-05
4.76251e-05
4.77221e-05
4.78216e-05
4.79237e-05
4.80283e-05
4.81355e-05
4.82452e-05
4.83573e-05
4.84719e-05
4.85889e-05
4.87084e-05
4.88302e-05
4.89542e-05
4.90807e-05
4.92095e-05
4.93404e-05
4.94736e-05
4.96089e-05
4.97463e-05
4.98858e-05
5.00271e-05
5.01708e-05
5.03162e-05
5.04634e-05
5.06126e-05
5.07637e-05
5.09165e-05
5.10711e-05
5.12273e-05
5.13854e-05
5.15451e-05
5.17064e-05
5.18694e-05
5.20338e-05
5.22e-05
5.23676e-05
5.25367e-05
5.27074e-05
5.28795e-05
5.30531e-05
5.32282e-05
5.34046e-05
5.35823e-05
5.37616e-05
5.39422e-05
5.41241e-05
5.43074e-05
5.4492e-05
5.4678e-05
5.48652e-05
5.50537e-05
5.52434e-05
5.54344e-05
5.56266e-05
5.58201e-05
5.60147e-05
5.62107e-05
5.64077e-05
5.66061e-05
5.68055e-05
5.70061e-05
5.72078e-05
5.74106e-05
5.76147e-05
5.78198e-05
5.80261e-05
5.82335e-05
5.84419e-05
5.86514e-05
5.88618e-05
5.90734e-05
5.9286e-05
5.94994e-05
5.97139e-05
5.99293e-05
6.01455e-05
6.03628e-05
6.05806e-05
6.07995e-05
6.1019e-05
6.1239e-05
6.146e-05
6.16814e-05
6.19033e-05
6.21258e-05
6.23489e-05
6.25723e-05
6.27961e-05
6.30203e-05
6.32447e-05
6.34694e-05
6.36945e-05
6.39198e-05
6.41455e-05
6.43712e-05
6.4597e-05
6.48232e-05
6.50494e-05
6.52758e-05
6.55024e-05
6.57289e-05
6.59557e-05
6.61827e-05
6.64097e-05
6.66368e-05
6.68642e-05
6.70915e-05
6.73191e-05
6.75468e-05
6.77748e-05
6.80029e-05
6.82311e-05
6.84596e-05
6.86884e-05
6.89173e-05
6.91465e-05
6.9376e-05
6.96058e-05
6.98359e-05
7.0066e-05
7.02967e-05
7.05275e-05
7.07588e-05
7.09904e-05
7.12223e-05
7.14545e-05
7.1687e-05
7.192e-05
7.21534e-05
7.2387e-05
7.26209e-05
7.28552e-05
7.309e-05
7.3325e-05
7.35604e-05
7.37963e-05
7.40323e-05
7.42688e-05
7.45057e-05
7.4743e-05
7.49805e-05
7.52185e-05
7.54568e-05
7.56954e-05
7.59343e-05
7.61738e-05
7.64134e-05
7.66535e-05
7.68939e-05
7.71346e-05
7.73757e-05
7.7617e-05
7.78585e-05
7.81005e-05
7.83424e-05
7.85846e-05
7.88271e-05
7.90695e-05
7.9312e-05
7.95544e-05
7.97969e-05
8.00392e-05
8.02815e-05
8.05234e-05
8.07652e-05
8.10065e-05
8.12473e-05
8.14879e-05
8.17278e-05
8.1967e-05
8.22056e-05
8.24433e-05
8.26803e-05
8.29164e-05
8.31513e-05
8.33853e-05
8.36179e-05
8.38493e-05
8.40795e-05
8.43081e-05
8.45351e-05
8.47607e-05
8.49846e-05
8.52068e-05
8.54271e-05
8.56459e-05
8.58628e-05
8.60783e-05
8.62924e-05
8.65067e-05
8.67232e-05
4.56964e-05
4.56971e-05
4.56985e-05
4.57004e-05
4.57031e-05
4.57064e-05
4.57109e-05
4.57165e-05
4.57232e-05
4.57312e-05
4.57406e-05
4.57515e-05
4.57639e-05
4.57777e-05
4.57933e-05
4.58106e-05
4.58295e-05
4.58504e-05
4.58731e-05
4.58976e-05
4.59243e-05
4.59528e-05
4.59835e-05
4.60162e-05
4.60513e-05
4.60885e-05
4.61279e-05
4.61697e-05
4.62138e-05
4.62603e-05
4.63091e-05
4.63605e-05
4.64143e-05
4.64705e-05
4.65293e-05
4.65906e-05
4.66543e-05
4.67208e-05
4.67897e-05
4.68612e-05
4.69351e-05
4.70118e-05
4.7091e-05
4.71727e-05
4.72571e-05
4.7344e-05
4.74337e-05
4.75257e-05
4.76205e-05
4.77176e-05
4.78175e-05
4.792e-05
4.80248e-05
4.81323e-05
4.82423e-05
4.83548e-05
4.84696e-05
4.85869e-05
4.87066e-05
4.88287e-05
4.89532e-05
4.90798e-05
4.9209e-05
4.93402e-05
4.94736e-05
4.96091e-05
4.97467e-05
4.98864e-05
5.0028e-05
5.01719e-05
5.03175e-05
5.04648e-05
5.06142e-05
5.07654e-05
5.09183e-05
5.10731e-05
5.12295e-05
5.13876e-05
5.15473e-05
5.17088e-05
5.18718e-05
5.20362e-05
5.22023e-05
5.237e-05
5.25392e-05
5.27098e-05
5.28819e-05
5.30555e-05
5.32304e-05
5.34068e-05
5.35846e-05
5.37638e-05
5.39442e-05
5.41262e-05
5.43093e-05
5.44937e-05
5.46795e-05
5.48667e-05
5.5055e-05
5.52445e-05
5.54353e-05
5.56274e-05
5.58206e-05
5.60153e-05
5.62109e-05
5.64079e-05
5.66059e-05
5.68051e-05
5.70056e-05
5.7207e-05
5.74097e-05
5.76134e-05
5.78183e-05
5.80244e-05
5.82314e-05
5.84396e-05
5.86489e-05
5.88592e-05
5.90703e-05
5.92827e-05
5.9496e-05
5.97101e-05
5.99252e-05
6.01413e-05
6.03582e-05
6.0576e-05
6.07944e-05
6.10136e-05
6.12336e-05
6.14541e-05
6.16753e-05
6.1897e-05
6.21192e-05
6.2342e-05
6.25652e-05
6.27886e-05
6.30126e-05
6.32368e-05
6.34613e-05
6.3686e-05
6.39111e-05
6.41363e-05
6.43617e-05
6.45873e-05
6.4813e-05
6.5039e-05
6.52651e-05
6.54911e-05
6.57175e-05
6.59441e-05
6.61706e-05
6.63972e-05
6.66241e-05
6.68511e-05
6.70781e-05
6.73053e-05
6.75326e-05
6.77602e-05
6.7988e-05
6.82158e-05
6.84441e-05
6.86724e-05
6.89009e-05
6.91299e-05
6.93589e-05
6.95883e-05
6.98177e-05
7.00477e-05
7.02779e-05
7.05085e-05
7.07393e-05
7.09705e-05
7.1202e-05
7.14339e-05
7.1666e-05
7.18986e-05
7.21315e-05
7.23647e-05
7.25984e-05
7.28322e-05
7.30666e-05
7.33012e-05
7.35364e-05
7.37716e-05
7.40074e-05
7.42435e-05
7.44799e-05
7.47166e-05
7.49536e-05
7.51911e-05
7.54288e-05
7.5667e-05
7.59054e-05
7.61442e-05
7.63833e-05
7.6623e-05
7.68628e-05
7.71028e-05
7.73432e-05
7.75839e-05
7.78249e-05
7.80659e-05
7.83074e-05
7.85489e-05
7.87905e-05
7.90324e-05
7.9274e-05
7.95159e-05
7.97577e-05
7.99991e-05
8.02407e-05
8.04819e-05
8.07227e-05
8.09635e-05
8.12036e-05
8.14432e-05
8.16825e-05
8.19211e-05
8.21589e-05
8.2396e-05
8.26324e-05
8.28678e-05
8.31024e-05
8.33357e-05
8.35679e-05
8.3799e-05
8.40287e-05
8.42572e-05
8.44842e-05
8.47096e-05
8.49335e-05
8.51556e-05
8.53761e-05
8.5595e-05
8.58121e-05
8.60276e-05
8.62415e-05
8.64544e-05
8.66672e-05
8.68822e-05
4.56964e-05
4.56973e-05
4.56989e-05
4.5701e-05
4.57039e-05
4.57079e-05
4.5713e-05
4.57193e-05
4.5727e-05
4.57359e-05
4.57464e-05
4.57587e-05
4.57723e-05
4.57877e-05
4.5805e-05
4.58239e-05
4.58448e-05
4.58675e-05
4.58924e-05
4.59192e-05
4.59479e-05
4.59789e-05
4.60122e-05
4.60476e-05
4.60851e-05
4.61251e-05
4.61674e-05
4.62122e-05
4.62592e-05
4.63088e-05
4.63608e-05
4.64153e-05
4.64723e-05
4.65318e-05
4.65939e-05
4.66586e-05
4.67257e-05
4.67955e-05
4.68679e-05
4.69429e-05
4.70204e-05
4.71005e-05
4.71833e-05
4.72686e-05
4.73566e-05
4.74472e-05
4.75403e-05
4.76359e-05
4.77342e-05
4.7835e-05
4.79383e-05
4.80442e-05
4.81528e-05
4.82637e-05
4.83771e-05
4.8493e-05
4.86114e-05
4.8732e-05
4.88551e-05
4.89804e-05
4.91082e-05
4.92381e-05
4.93703e-05
4.95046e-05
4.9641e-05
4.97795e-05
4.992e-05
5.00624e-05
5.02068e-05
5.03532e-05
5.05015e-05
5.06514e-05
5.08034e-05
5.09569e-05
5.11123e-05
5.12693e-05
5.14279e-05
5.15882e-05
5.17501e-05
5.19135e-05
5.20786e-05
5.22452e-05
5.24132e-05
5.25827e-05
5.27537e-05
5.29262e-05
5.31e-05
5.32754e-05
5.3452e-05
5.363e-05
5.38095e-05
5.39902e-05
5.41723e-05
5.43557e-05
5.45404e-05
5.47262e-05
5.49136e-05
5.5102e-05
5.52917e-05
5.54827e-05
5.5675e-05
5.58683e-05
5.6063e-05
5.62586e-05
5.64555e-05
5.66538e-05
5.68531e-05
5.70534e-05
5.72549e-05
5.74576e-05
5.76614e-05
5.78664e-05
5.80724e-05
5.82794e-05
5.84875e-05
5.86966e-05
5.89068e-05
5.9118e-05
5.93303e-05
5.95436e-05
5.97576e-05
5.99728e-05
6.01887e-05
6.04055e-05
6.06231e-05
6.08414e-05
6.10606e-05
6.12803e-05
6.15009e-05
6.17218e-05
6.19436e-05
6.21656e-05
6.23881e-05
6.26109e-05
6.28342e-05
6.3058e-05
6.32819e-05
6.35061e-05
6.37306e-05
6.39554e-05
6.41803e-05
6.44055e-05
6.46308e-05
6.48561e-05
6.50818e-05
6.53074e-05
6.55332e-05
6.57592e-05
6.59853e-05
6.62114e-05
6.64376e-05
6.66642e-05
6.68906e-05
6.71173e-05
6.73442e-05
6.75711e-05
6.77983e-05
6.80256e-05
6.8253e-05
6.84807e-05
6.87087e-05
6.89368e-05
6.91652e-05
6.93939e-05
6.96229e-05
6.98522e-05
7.00816e-05
7.03115e-05
7.05416e-05
7.07719e-05
7.10027e-05
7.12338e-05
7.14655e-05
7.16972e-05
7.19294e-05
7.21619e-05
7.23948e-05
7.26279e-05
7.28613e-05
7.30953e-05
7.33296e-05
7.35642e-05
7.37991e-05
7.40343e-05
7.427e-05
7.45058e-05
7.47421e-05
7.49788e-05
7.52157e-05
7.5453e-05
7.56906e-05
7.59285e-05
7.61667e-05
7.64052e-05
7.6644e-05
7.68832e-05
7.71227e-05
7.73624e-05
7.76025e-05
7.78427e-05
7.80831e-05
7.83237e-05
7.85644e-05
7.88054e-05
7.90462e-05
7.92872e-05
7.9528e-05
7.9769e-05
8.00096e-05
8.02502e-05
8.04904e-05
8.07303e-05
8.097e-05
8.12092e-05
8.14479e-05
8.16861e-05
8.19236e-05
8.21606e-05
8.23967e-05
8.2632e-05
8.28665e-05
8.30999e-05
8.33325e-05
8.3564e-05
8.37943e-05
8.40232e-05
8.42511e-05
8.44773e-05
8.47023e-05
8.49257e-05
8.51476e-05
8.53678e-05
8.55863e-05
8.58031e-05
8.60183e-05
8.6232e-05
8.64442e-05
8.66554e-05
8.68664e-05
8.70799e-05
4.56964e-05
4.56976e-05
4.56994e-05
4.57018e-05
4.57053e-05
4.57099e-05
4.57158e-05
4.5723e-05
4.57317e-05
4.5742e-05
4.57539e-05
4.57676e-05
4.57832e-05
4.58005e-05
4.58197e-05
4.58409e-05
4.5864e-05
4.58892e-05
4.59165e-05
4.5946e-05
4.59777e-05
4.60117e-05
4.6048e-05
4.60866e-05
4.61274e-05
4.61708e-05
4.62166e-05
4.62649e-05
4.63155e-05
4.63689e-05
4.64246e-05
4.6483e-05
4.65439e-05
4.66073e-05
4.66735e-05
4.67421e-05
4.68135e-05
4.68875e-05
4.69639e-05
4.70431e-05
4.71249e-05
4.72093e-05
4.72962e-05
4.73858e-05
4.7478e-05
4.75728e-05
4.76702e-05
4.77702e-05
4.78727e-05
4.79777e-05
4.80854e-05
4.81954e-05
4.83081e-05
4.84232e-05
4.85408e-05
4.86608e-05
4.87831e-05
4.89078e-05
4.90348e-05
4.91641e-05
4.92956e-05
4.94293e-05
4.95651e-05
4.9703e-05
4.98429e-05
4.99848e-05
5.01288e-05
5.02745e-05
5.04222e-05
5.05717e-05
5.0723e-05
5.08759e-05
5.10307e-05
5.11872e-05
5.13452e-05
5.15048e-05
5.16661e-05
5.18291e-05
5.19935e-05
5.21594e-05
5.23267e-05
5.24956e-05
5.2666e-05
5.28378e-05
5.3011e-05
5.31854e-05
5.33614e-05
5.35388e-05
5.37174e-05
5.38974e-05
5.40787e-05
5.42614e-05
5.44454e-05
5.46306e-05
5.48169e-05
5.50046e-05
5.51935e-05
5.53837e-05
5.55751e-05
5.57676e-05
5.59613e-05
5.61563e-05
5.63525e-05
5.65497e-05
5.67481e-05
5.69477e-05
5.71483e-05
5.73501e-05
5.75532e-05
5.77571e-05
5.79622e-05
5.81685e-05
5.83757e-05
5.85839e-05
5.87933e-05
5.90036e-05
5.92149e-05
5.94273e-05
5.96408e-05
5.98551e-05
6.00703e-05
6.02863e-05
6.05032e-05
6.07208e-05
6.09392e-05
6.11584e-05
6.13782e-05
6.15987e-05
6.18197e-05
6.20413e-05
6.22634e-05
6.24858e-05
6.27086e-05
6.29318e-05
6.31551e-05
6.3379e-05
6.36031e-05
6.38273e-05
6.40518e-05
6.42764e-05
6.45012e-05
6.47262e-05
6.49513e-05
6.51764e-05
6.54017e-05
6.56271e-05
6.58526e-05
6.60784e-05
6.6304e-05
6.65298e-05
6.67558e-05
6.6982e-05
6.72082e-05
6.74345e-05
6.76609e-05
6.78877e-05
6.81145e-05
6.83416e-05
6.85688e-05
6.87963e-05
6.90239e-05
6.9252e-05
6.94801e-05
6.97086e-05
6.99374e-05
7.01665e-05
7.03959e-05
7.06256e-05
7.08556e-05
7.10861e-05
7.13167e-05
7.15478e-05
7.17792e-05
7.20109e-05
7.22429e-05
7.24755e-05
7.27083e-05
7.29413e-05
7.31747e-05
7.34087e-05
7.36428e-05
7.38774e-05
7.41121e-05
7.43473e-05
7.45826e-05
7.48184e-05
7.50546e-05
7.5291e-05
7.55278e-05
7.57646e-05
7.6002e-05
7.62397e-05
7.64774e-05
7.67157e-05
7.69541e-05
7.71931e-05
7.74321e-05
7.76712e-05
7.79106e-05
7.81503e-05
7.83902e-05
7.86301e-05
7.88701e-05
7.91101e-05
7.93501e-05
7.95901e-05
7.98298e-05
8.00694e-05
8.03089e-05
8.05482e-05
8.07869e-05
8.10253e-05
8.12633e-05
8.15007e-05
8.17376e-05
8.19738e-05
8.22095e-05
8.24444e-05
8.26784e-05
8.29116e-05
8.31439e-05
8.33752e-05
8.36054e-05
8.38346e-05
8.40624e-05
8.42891e-05
8.45143e-05
8.47384e-05
8.49609e-05
8.51819e-05
8.54015e-05
8.56193e-05
8.58357e-05
8.60502e-05
8.62632e-05
8.64748e-05
8.66849e-05
8.68941e-05
8.71032e-05
8.73149e-05
4.56966e-05
4.56978e-05
4.56999e-05
4.57029e-05
4.57069e-05
4.57123e-05
4.57191e-05
4.57277e-05
4.57377e-05
4.57496e-05
4.57634e-05
4.5779e-05
4.57966e-05
4.58162e-05
4.58379e-05
4.58617e-05
4.58876e-05
4.59158e-05
4.59463e-05
4.59791e-05
4.60141e-05
4.60517e-05
4.60916e-05
4.61339e-05
4.61788e-05
4.62262e-05
4.62761e-05
4.63286e-05
4.63837e-05
4.64413e-05
4.65015e-05
4.65645e-05
4.663e-05
4.66982e-05
4.67691e-05
4.68425e-05
4.69185e-05
4.69973e-05
4.70788e-05
4.71628e-05
4.72495e-05
4.73389e-05
4.74307e-05
4.75252e-05
4.76225e-05
4.77221e-05
4.78245e-05
4.79294e-05
4.80368e-05
4.81467e-05
4.82592e-05
4.83742e-05
4.84917e-05
4.86116e-05
4.87338e-05
4.88585e-05
4.89856e-05
4.91149e-05
4.92464e-05
4.93802e-05
4.95159e-05
4.96539e-05
4.97939e-05
4.99359e-05
5.00799e-05
5.02258e-05
5.03735e-05
5.05229e-05
5.06743e-05
5.08274e-05
5.0982e-05
5.11383e-05
5.12965e-05
5.14561e-05
5.16173e-05
5.178e-05
5.19443e-05
5.211e-05
5.22773e-05
5.24459e-05
5.2616e-05
5.27874e-05
5.29604e-05
5.31348e-05
5.33103e-05
5.34874e-05
5.36656e-05
5.38454e-05
5.40262e-05
5.42085e-05
5.43918e-05
5.45766e-05
5.47627e-05
5.49499e-05
5.51384e-05
5.5328e-05
5.55188e-05
5.57109e-05
5.59041e-05
5.60986e-05
5.62941e-05
5.64907e-05
5.66886e-05
5.68876e-05
5.70877e-05
5.72889e-05
5.74911e-05
5.76945e-05
5.7899e-05
5.81047e-05
5.83112e-05
5.85189e-05
5.87275e-05
5.89373e-05
5.9148e-05
5.93597e-05
5.95723e-05
5.97861e-05
6.00006e-05
6.02162e-05
6.04324e-05
6.06497e-05
6.08675e-05
6.10863e-05
6.13057e-05
6.15257e-05
6.17462e-05
6.19673e-05
6.2189e-05
6.2411e-05
6.26335e-05
6.28562e-05
6.30795e-05
6.33028e-05
6.35264e-05
6.37503e-05
6.39744e-05
6.41987e-05
6.44229e-05
6.46474e-05
6.4872e-05
6.50968e-05
6.53216e-05
6.55465e-05
6.57714e-05
6.59965e-05
6.62216e-05
6.64471e-05
6.66724e-05
6.68978e-05
6.71233e-05
6.73491e-05
6.75748e-05
6.78008e-05
6.80271e-05
6.82535e-05
6.84799e-05
6.87067e-05
6.89335e-05
6.91607e-05
6.93884e-05
6.96159e-05
6.98439e-05
7.00723e-05
7.03009e-05
7.05299e-05
7.07591e-05
7.09887e-05
7.12187e-05
7.14489e-05
7.16796e-05
7.19106e-05
7.21418e-05
7.23736e-05
7.26055e-05
7.28379e-05
7.30706e-05
7.33037e-05
7.35372e-05
7.37708e-05
7.40048e-05
7.42392e-05
7.44738e-05
7.47089e-05
7.49441e-05
7.51797e-05
7.54155e-05
7.56516e-05
7.5888e-05
7.61247e-05
7.63617e-05
7.65991e-05
7.68365e-05
7.70742e-05
7.73122e-05
7.75506e-05
7.7789e-05
7.80277e-05
7.82665e-05
7.85054e-05
7.87444e-05
7.89835e-05
7.92224e-05
7.94614e-05
7.97003e-05
7.99391e-05
8.01775e-05
8.04157e-05
8.06536e-05
8.0891e-05
8.11281e-05
8.13647e-05
8.16007e-05
8.18361e-05
8.2071e-05
8.2305e-05
8.25381e-05
8.27707e-05
8.30024e-05
8.32331e-05
8.34627e-05
8.36914e-05
8.3919e-05
8.41454e-05
8.43706e-05
8.45945e-05
8.48171e-05
8.50383e-05
8.52582e-05
8.54765e-05
8.56934e-05
8.59087e-05
8.61225e-05
8.63346e-05
8.6545e-05
8.67541e-05
8.6962e-05
8.71689e-05
8.73761e-05
8.75855e-05
4.56966e-05
4.56982e-05
4.57006e-05
4.57043e-05
4.57092e-05
4.57155e-05
4.57235e-05
4.57335e-05
4.57452e-05
4.5759e-05
4.57749e-05
4.5793e-05
4.58131e-05
4.58355e-05
4.58602e-05
4.58871e-05
4.59165e-05
4.59482e-05
4.59824e-05
4.6019e-05
4.60581e-05
4.60999e-05
4.61441e-05
4.61909e-05
4.62403e-05
4.62924e-05
4.63471e-05
4.64046e-05
4.64647e-05
4.65274e-05
4.65929e-05
4.6661e-05
4.67319e-05
4.68054e-05
4.68816e-05
4.69606e-05
4.70424e-05
4.71265e-05
4.72135e-05
4.73031e-05
4.73954e-05
4.74904e-05
4.7588e-05
4.76882e-05
4.77909e-05
4.78963e-05
4.80042e-05
4.81146e-05
4.82277e-05
4.83431e-05
4.84612e-05
4.85815e-05
4.87044e-05
4.88298e-05
4.89573e-05
4.90874e-05
4.92196e-05
4.93539e-05
4.94905e-05
4.96292e-05
4.97699e-05
4.99126e-05
5.00573e-05
5.02039e-05
5.03523e-05
5.05024e-05
5.06543e-05
5.08081e-05
5.09633e-05
5.11203e-05
5.12788e-05
5.14389e-05
5.16005e-05
5.17637e-05
5.19282e-05
5.20944e-05
5.22619e-05
5.24308e-05
5.26011e-05
5.27729e-05
5.2946e-05
5.31204e-05
5.32961e-05
5.34731e-05
5.36515e-05
5.38312e-05
5.40121e-05
5.41943e-05
5.43777e-05
5.45624e-05
5.47483e-05
5.49353e-05
5.51236e-05
5.53131e-05
5.55037e-05
5.56957e-05
5.58886e-05
5.60828e-05
5.62781e-05
5.64744e-05
5.6672e-05
5.68707e-05
5.70705e-05
5.72712e-05
5.74732e-05
5.76762e-05
5.78803e-05
5.80855e-05
5.82916e-05
5.8499e-05
5.87072e-05
5.89164e-05
5.91268e-05
5.9338e-05
5.95503e-05
5.97635e-05
5.99778e-05
6.01928e-05
6.04088e-05
6.06256e-05
6.08432e-05
6.10616e-05
6.12807e-05
6.15005e-05
6.17207e-05
6.19417e-05
6.21631e-05
6.23849e-05
6.26071e-05
6.28296e-05
6.30527e-05
6.32758e-05
6.34991e-05
6.37226e-05
6.39464e-05
6.41703e-05
6.43942e-05
6.46185e-05
6.48426e-05
6.50669e-05
6.52912e-05
6.55156e-05
6.57401e-05
6.59648e-05
6.61892e-05
6.6414e-05
6.66387e-05
6.68635e-05
6.70885e-05
6.73134e-05
6.75387e-05
6.7764e-05
6.79894e-05
6.82149e-05
6.84407e-05
6.86666e-05
6.88927e-05
6.91192e-05
6.93458e-05
6.95729e-05
6.98e-05
7.00275e-05
7.02552e-05
7.04833e-05
7.07119e-05
7.09407e-05
7.11697e-05
7.13992e-05
7.16292e-05
7.18593e-05
7.20899e-05
7.23208e-05
7.2552e-05
7.27837e-05
7.30155e-05
7.32479e-05
7.34805e-05
7.37135e-05
7.39467e-05
7.41803e-05
7.44142e-05
7.46481e-05
7.48826e-05
7.51174e-05
7.53525e-05
7.55877e-05
7.58232e-05
7.6059e-05
7.62951e-05
7.65315e-05
7.6768e-05
7.70048e-05
7.72417e-05
7.74789e-05
7.77164e-05
7.7954e-05
7.81919e-05
7.84296e-05
7.86676e-05
7.89058e-05
7.91437e-05
7.93818e-05
7.96195e-05
7.98573e-05
8.00947e-05
8.0332e-05
8.05689e-05
8.08053e-05
8.10412e-05
8.12768e-05
8.15118e-05
8.17462e-05
8.19801e-05
8.2213e-05
8.24452e-05
8.26767e-05
8.29074e-05
8.31373e-05
8.33661e-05
8.3594e-05
8.38206e-05
8.40464e-05
8.4271e-05
8.44946e-05
8.47166e-05
8.49377e-05
8.51572e-05
8.53754e-05
8.55922e-05
8.58076e-05
8.60217e-05
8.62339e-05
8.64449e-05
8.66544e-05
8.68622e-05
8.70688e-05
8.72742e-05
8.74788e-05
8.76836e-05
8.78907e-05
4.56968e-05
4.56987e-05
4.57017e-05
4.57059e-05
4.57118e-05
4.57193e-05
4.57289e-05
4.57406e-05
4.57545e-05
4.57706e-05
4.57891e-05
4.58099e-05
4.58332e-05
4.58589e-05
4.58871e-05
4.59178e-05
4.59512e-05
4.59871e-05
4.60255e-05
4.60667e-05
4.61106e-05
4.61571e-05
4.62064e-05
4.62584e-05
4.63132e-05
4.63706e-05
4.6431e-05
4.64941e-05
4.65599e-05
4.66284e-05
4.66998e-05
4.6774e-05
4.68509e-05
4.69305e-05
4.70128e-05
4.7098e-05
4.71859e-05
4.72764e-05
4.73697e-05
4.74656e-05
4.75641e-05
4.76654e-05
4.77692e-05
4.78757e-05
4.79846e-05
4.80963e-05
4.82104e-05
4.8327e-05
4.84462e-05
4.85679e-05
4.86919e-05
4.88185e-05
4.89474e-05
4.90786e-05
4.9212e-05
4.93478e-05
4.94858e-05
4.96258e-05
4.97679e-05
4.9912e-05
5.00581e-05
5.02059e-05
5.03557e-05
5.05071e-05
5.06603e-05
5.08152e-05
5.09717e-05
5.11298e-05
5.12894e-05
5.14506e-05
5.16133e-05
5.17772e-05
5.19429e-05
5.21098e-05
5.2278e-05
5.24478e-05
5.26188e-05
5.27911e-05
5.29648e-05
5.31398e-05
5.33161e-05
5.34937e-05
5.36725e-05
5.38524e-05
5.40339e-05
5.42163e-05
5.44001e-05
5.4585e-05
5.47711e-05
5.49584e-05
5.5147e-05
5.53366e-05
5.55274e-05
5.57192e-05
5.59124e-05
5.61065e-05
5.63019e-05
5.64983e-05
5.66958e-05
5.68944e-05
5.70942e-05
5.7295e-05
5.74968e-05
5.76997e-05
5.79038e-05
5.81087e-05
5.83146e-05
5.85218e-05
5.87298e-05
5.89389e-05
5.9149e-05
5.93601e-05
5.95721e-05
5.97852e-05
5.99991e-05
6.02139e-05
6.04297e-05
6.06462e-05
6.08638e-05
6.1082e-05
6.1301e-05
6.15206e-05
6.17409e-05
6.19618e-05
6.21831e-05
6.24049e-05
6.26271e-05
6.28496e-05
6.30725e-05
6.32956e-05
6.35189e-05
6.37422e-05
6.39658e-05
6.41895e-05
6.44133e-05
6.46371e-05
6.48609e-05
6.5085e-05
6.53089e-05
6.55327e-05
6.57569e-05
6.59809e-05
6.6205e-05
6.6429e-05
6.66532e-05
6.68774e-05
6.71017e-05
6.7326e-05
6.75504e-05
6.77749e-05
6.79995e-05
6.82244e-05
6.84494e-05
6.86744e-05
6.88998e-05
6.91255e-05
6.93512e-05
6.95772e-05
6.98036e-05
7.00302e-05
7.02571e-05
7.04844e-05
7.07121e-05
7.09399e-05
7.11683e-05
7.13969e-05
7.16259e-05
7.18553e-05
7.20851e-05
7.23152e-05
7.25456e-05
7.27765e-05
7.30077e-05
7.32392e-05
7.3471e-05
7.37031e-05
7.39356e-05
7.41685e-05
7.44015e-05
7.46349e-05
7.48686e-05
7.51025e-05
7.53366e-05
7.55711e-05
7.58058e-05
7.60408e-05
7.62758e-05
7.65111e-05
7.67468e-05
7.69825e-05
7.72186e-05
7.74547e-05
7.76911e-05
7.79278e-05
7.81643e-05
7.84013e-05
7.86382e-05
7.88752e-05
7.91121e-05
7.93491e-05
7.95859e-05
7.98225e-05
8.0059e-05
8.02952e-05
8.0531e-05
8.07666e-05
8.10014e-05
8.12359e-05
8.14697e-05
8.1703e-05
8.19356e-05
8.21674e-05
8.23986e-05
8.26289e-05
8.28585e-05
8.30869e-05
8.33147e-05
8.35414e-05
8.37671e-05
8.39919e-05
8.42155e-05
8.44379e-05
8.46593e-05
8.48795e-05
8.50985e-05
8.53161e-05
8.55324e-05
8.57473e-05
8.5961e-05
8.61732e-05
8.63839e-05
8.65933e-05
8.68012e-05
8.70078e-05
8.72129e-05
8.74168e-05
8.76195e-05
8.78215e-05
8.8024e-05
8.82289e-05
4.56969e-05
4.56992e-05
4.57029e-05
4.57081e-05
4.57151e-05
4.57242e-05
4.57358e-05
4.57496e-05
4.57658e-05
4.57847e-05
4.58064e-05
4.58306e-05
4.58575e-05
4.58871e-05
4.59195e-05
4.59547e-05
4.59926e-05
4.60334e-05
4.60769e-05
4.61234e-05
4.61727e-05
4.62248e-05
4.628e-05
4.63378e-05
4.63986e-05
4.64623e-05
4.6529e-05
4.65983e-05
4.66707e-05
4.67458e-05
4.68239e-05
4.69048e-05
4.69883e-05
4.70749e-05
4.7164e-05
4.7256e-05
4.73508e-05
4.74482e-05
4.75484e-05
4.76512e-05
4.77567e-05
4.78648e-05
4.79757e-05
4.8089e-05
4.82048e-05
4.83233e-05
4.84442e-05
4.85677e-05
4.86937e-05
4.88219e-05
4.89527e-05
4.90859e-05
4.92213e-05
4.93589e-05
4.94988e-05
4.9641e-05
4.97849e-05
4.99312e-05
5.0079e-05
5.02291e-05
5.03807e-05
5.05342e-05
5.06892e-05