/*--------------------------------*- C++ -*----------------------------------*\
  =========                 |
  \\      /  F ield         | OpenFOAM: The Open Source CFD Toolbox
   \\    /   O peration     | Website:  https://openfoam.org
    \\  /    A nd           | Version:  7
     \\/     M anipulation  |
\*---------------------------------------------------------------------------*/
FoamFile
{
    version     2.0;
    format      ascii;
    class       volScalarField;
    location    "5761";
    object      rho;
}
// * * * * * * * * * * * * * * * * * * * * * * * * * * * * * * * * * * * * * //

dimensions      [1 -3 0 0 0 0 0];

internalField   nonuniform List<scalar> 
27600
(
1.02476
1.02475
1.02474
1.02472
1.02469
1.02466
1.02462
1.02456
1.02449
1.02441
1.02432
1.02421
1.02408
1.02394
1.02378
1.0236
1.0234
1.02318
1.02294
1.02267
1.02239
1.02208
1.02174
1.02139
1.021
1.02059
1.02016
1.0197
1.01921
1.01869
1.01815
1.01757
1.01697
1.01634
1.01568
1.01499
1.01427
1.01352
1.01274
1.01193
1.01109
1.01022
1.00932
1.00839
1.00743
1.00645
1.00543
1.00439
1.00331
1.00221
1.00108
0.999924
0.998739
0.997527
0.996288
0.995023
0.993732
0.992416
0.991075
0.989709
0.988321
0.986909
0.985475
0.98402
0.982543
0.981046
0.97953
0.977995
0.976442
0.974872
0.973285
0.971682
0.970064
0.968431
0.966784
0.965125
0.963452
0.961767
0.960071
0.958364
0.956647
0.95492
0.953183
0.951438
0.949684
0.947921
0.946152
0.944375
0.942591
0.940801
0.939005
0.937203
0.935396
0.933584
0.931767
0.929945
0.928119
0.92629
0.924457
0.92262
0.920781
0.918939
0.917094
0.915246
0.913397
0.911546
0.909693
0.907838
0.905983
0.904126
0.902268
0.90041
0.898551
0.896692
0.894833
0.892973
0.891114
0.889256
0.887398
0.885541
0.883685
0.881831
0.879978
0.878127
0.876278
0.874432
0.872589
0.870748
0.868911
0.867078
0.86525
0.863426
0.861606
0.859793
0.857984
0.856182
0.854386
0.852597
0.850814
0.849038
0.84727
0.845509
0.843755
0.842009
0.840271
0.838541
0.836819
0.835105
0.833399
0.831701
0.830012
0.82833
0.826656
0.82499
0.823332
0.821681
0.820039
0.818403
0.816776
0.815155
0.813542
0.811935
0.810336
0.808743
0.807157
0.805577
0.804003
0.802436
0.800875
0.79932
0.79777
0.796227
0.794689
0.793157
0.79163
0.790108
0.788592
0.787082
0.785576
0.784076
0.782581
0.781091
0.779606
0.778127
0.776652
0.775183
0.773718
0.772259
0.770804
0.769354
0.76791
0.76647
0.765035
0.763605
0.76218
0.760759
0.759343
0.757933
0.756527
0.755125
0.753729
0.752338
0.750952
0.749571
0.748196
0.746826
0.745461
0.744103
0.74275
0.741404
0.740065
0.738732
0.737407
0.736089
0.734778
0.733475
0.732181
0.730895
0.729619
0.728351
0.727093
0.725845
0.724607
0.72338
0.722164
0.720959
0.719766
0.718585
0.717417
0.716261
0.715117
0.713988
0.712871
0.711768
0.710678
0.709601
0.708537
0.707482
0.706433
0.705377
1.02476
1.02475
1.02474
1.02472
1.02469
1.02466
1.02461
1.02456
1.02449
1.0244
1.02431
1.0242
1.02407
1.02392
1.02375
1.02357
1.02337
1.02314
1.0229
1.02263
1.02234
1.02202
1.02168
1.02132
1.02093
1.02052
1.02008
1.01961
1.01911
1.01859
1.01804
1.01745
1.01685
1.01621
1.01554
1.01484
1.01411
1.01336
1.01257
1.01175
1.01091
1.01003
1.00912
1.00819
1.00722
1.00623
1.00521
1.00415
1.00307
1.00196
1.00083
0.999662
0.99847
0.997251
0.996005
0.994734
0.993436
0.992114
0.990767
0.989395
0.988001
0.986583
0.985144
0.983683
0.982201
0.9807
0.979179
0.977639
0.976082
0.974507
0.972916
0.971309
0.969688
0.968052
0.966402
0.964739
0.963063
0.961376
0.959677
0.957968
0.956248
0.954519
0.95278
0.951033
0.949277
0.947513
0.945742
0.943964
0.942179
0.940388
0.938591
0.936788
0.93498
0.933167
0.931349
0.929527
0.9277
0.925871
0.924037
0.9222
0.92036
0.918518
0.916673
0.914826
0.912976
0.911125
0.909272
0.907418
0.905562
0.903706
0.901849
0.899991
0.898132
0.896274
0.894415
0.892556
0.890698
0.88884
0.886983
0.885127
0.883272
0.881418
0.879566
0.877717
0.875869
0.874024
0.872181
0.870342
0.868507
0.866675
0.864848
0.863025
0.861208
0.859396
0.857589
0.855789
0.853995
0.852207
0.850427
0.848653
0.846887
0.845128
0.843377
0.841633
0.839898
0.83817
0.83645
0.834738
0.833035
0.831339
0.829651
0.827972
0.8263
0.824637
0.822981
0.821333
0.819692
0.818059
0.816433
0.814815
0.813203
0.811599
0.810001
0.80841
0.806826
0.805248
0.803677
0.802111
0.800552
0.798998
0.797451
0.795909
0.794373
0.792842
0.791317
0.789797
0.788283
0.786773
0.78527
0.783771
0.782278
0.780789
0.779306
0.777828
0.776355
0.774887
0.773424
0.771966
0.770513
0.769065
0.767622
0.766184
0.764751
0.763322
0.761899
0.76048
0.759066
0.757657
0.756253
0.754853
0.753459
0.75207
0.750685
0.749306
0.747933
0.746565
0.745202
0.743846
0.742496
0.741152
0.739815
0.738485
0.737162
0.735846
0.734538
0.733238
0.731946
0.730663
0.729389
0.728124
0.726869
0.725624
0.724389
0.723165
0.721951
0.720749
0.719559
0.718381
0.717215
0.716062
0.714921
0.713794
0.71268
0.71158
0.710493
0.709418
0.708356
0.707304
0.706257
0.705203
1.02476
1.02475
1.02473
1.02471
1.02469
1.02465
1.0246
1.02454
1.02447
1.02438
1.02428
1.02416
1.02403
1.02387
1.0237
1.02351
1.0233
1.02306
1.02281
1.02253
1.02223
1.0219
1.02155
1.02117
1.02077
1.02034
1.01989
1.01941
1.0189
1.01836
1.01779
1.0172
1.01657
1.01592
1.01523
1.01452
1.01378
1.013
1.0122
1.01137
1.0105
1.00961
1.00869
1.00774
1.00676
1.00575
1.00471
1.00364
1.00254
1.00142
1.00026
0.999085
0.997877
0.996643
0.995383
0.994097
0.992786
0.991449
0.990088
0.988704
0.987297
0.985867
0.984415
0.982943
0.98145
0.979937
0.978406
0.976856
0.975289
0.973706
0.972106
0.970491
0.968862
0.967218
0.965561
0.963892
0.96221
0.960517
0.958812
0.957098
0.955373
0.953639
0.951896
0.950145
0.948385
0.946618
0.944843
0.943062
0.941275
0.939481
0.937681
0.935876
0.934066
0.932252
0.930432
0.928609
0.926781
0.924951
0.923116
0.921279
0.919438
0.917596
0.91575
0.913903
0.912054
0.910203
0.90835
0.906496
0.904641
0.902785
0.900929
0.899072
0.897214
0.895357
0.893499
0.891642
0.889785
0.887929
0.886073
0.884219
0.882365
0.880514
0.878664
0.876816
0.874971
0.873128
0.871288
0.869452
0.86762
0.865791
0.863967
0.862148
0.860335
0.858526
0.856724
0.854928
0.853138
0.851355
0.849579
0.84781
0.846048
0.844294
0.842548
0.840809
0.839078
0.837356
0.835641
0.833934
0.832235
0.830545
0.828862
0.827188
0.825521
0.823862
0.822211
0.820568
0.818932
0.817304
0.815683
0.814069
0.812462
0.810862
0.809268
0.807682
0.806102
0.804528
0.80296
0.801399
0.799843
0.798294
0.79675
0.795212
0.793679
0.792152
0.790631
0.789114
0.787604
0.786098
0.784598
0.783103
0.781613
0.780128
0.778648
0.777174
0.775704
0.77424
0.77278
0.771326
0.769877
0.768432
0.766993
0.765558
0.764128
0.762703
0.761284
0.759868
0.758458
0.757053
0.755652
0.754257
0.752867
0.751481
0.750101
0.748726
0.747357
0.745993
0.744636
0.743284
0.741939
0.7406
0.739268
0.737942
0.736625
0.735314
0.734012
0.732717
0.731432
0.730154
0.728886
0.727627
0.726378
0.725139
0.72391
0.722692
0.721485
0.720289
0.719105
0.717933
0.716774
0.715627
0.714492
0.713371
0.712263
0.711168
0.710086
0.709017
0.70796
0.706913
0.705871
0.704822
1.02476
1.02475
1.02473
1.02471
1.02468
1.02464
1.02459
1.02452
1.02444
1.02435
1.02424
1.02411
1.02397
1.0238
1.02362
1.02341
1.02319
1.02294
1.02267
1.02237
1.02205
1.02171
1.02134
1.02095
1.02053
1.02008
1.0196
1.0191
1.01857
1.01801
1.01742
1.0168
1.01615
1.01547
1.01476
1.01403
1.01326
1.01246
1.01163
1.01078
1.00989
1.00897
1.00802
1.00705
1.00604
1.00501
1.00394
1.00285
1.00173
1.00058
0.999407
0.998204
0.996974
0.995718
0.994435
0.993128
0.991795
0.990438
0.989057
0.987653
0.986226
0.984778
0.983308
0.981818
0.980308
0.978779
0.977233
0.975668
0.974087
0.97249
0.970877
0.96925
0.967609
0.965954
0.964287
0.962607
0.960916
0.959214
0.957502
0.955779
0.954048
0.952307
0.950557
0.9488
0.947035
0.945263
0.943484
0.941698
0.939906
0.938109
0.936306
0.934498
0.932685
0.930868
0.929046
0.927221
0.925392
0.92356
0.921724
0.919886
0.918045
0.916201
0.914356
0.912508
0.910659
0.908808
0.906956
0.905103
0.903249
0.901394
0.899539
0.897683
0.895827
0.893971
0.892116
0.89026
0.888405
0.886551
0.884698
0.882846
0.880996
0.879147
0.877301
0.875456
0.873614
0.871776
0.86994
0.868108
0.86628
0.864457
0.862638
0.860824
0.859016
0.857214
0.855417
0.853628
0.851844
0.850068
0.848299
0.846537
0.844782
0.843035
0.841296
0.839565
0.837842
0.836127
0.83442
0.832721
0.83103
0.829347
0.827672
0.826005
0.824345
0.822694
0.82105
0.819414
0.817785
0.816164
0.81455
0.812943
0.811342
0.809749
0.808162
0.806582
0.805008
0.80344
0.801879
0.800323
0.798774
0.79723
0.795692
0.794159
0.792632
0.791111
0.789595
0.788084
0.786578
0.785078
0.783583
0.782093
0.780609
0.779129
0.777655
0.776186
0.774722
0.773262
0.771808
0.770359
0.768915
0.767476
0.766042
0.764613
0.763189
0.761769
0.760355
0.758945
0.757541
0.756141
0.754747
0.753357
0.751973
0.750593
0.749219
0.747851
0.746488
0.745131
0.743781
0.742436
0.741098
0.739766
0.738442
0.737125
0.735815
0.734513
0.733219
0.731933
0.730656
0.729387
0.728128
0.726878
0.725638
0.724409
0.723189
0.72198
0.720783
0.719596
0.718422
0.717259
0.716108
0.71497
0.713845
0.712732
0.711633
0.710546
0.709473
0.708412
0.707363
0.706324
0.705289
0.704247
1.02475
1.02474
1.02473
1.0247
1.02467
1.02462
1.02457
1.0245
1.02441
1.0243
1.02418
1.02404
1.02388
1.0237
1.0235
1.02328
1.02304
1.02277
1.02248
1.02216
1.02182
1.02145
1.02106
1.02064
1.02019
1.01972
1.01921
1.01868
1.01812
1.01753
1.01691
1.01626
1.01558
1.01487
1.01413
1.01336
1.01256
1.01173
1.01087
1.00998
1.00906
1.00811
1.00713
1.00612
1.00508
1.00401
1.00291
1.00179
1.00064
0.999459
0.998253
0.997019
0.995759
0.994473
0.993162
0.991825
0.990465
0.98908
0.987672
0.986242
0.984791
0.983318
0.981824
0.980312
0.97878
0.97723
0.975663
0.97408
0.97248
0.970865
0.969236
0.967593
0.965937
0.964268
0.962587
0.960895
0.959192
0.957478
0.955755
0.954023
0.952281
0.950532
0.948774
0.947009
0.945237
0.943458
0.941673
0.939882
0.938085
0.936283
0.934476
0.932664
0.930848
0.929027
0.927203
0.925375
0.923544
0.92171
0.919873
0.918034
0.916192
0.914348
0.912503
0.910655
0.908806
0.906956
0.905105
0.903253
0.9014
0.899546
0.897693
0.895839
0.893985
0.892131
0.890278
0.888425
0.886573
0.884723
0.882873
0.881024
0.879178
0.877333
0.875491
0.873651
0.871814
0.86998
0.86815
0.866324
0.864503
0.862686
0.860874
0.859068
0.857267
0.855472
0.853684
0.851903
0.850129
0.848361
0.846601
0.844849
0.843104
0.841367
0.839637
0.837916
0.836203
0.834498
0.832801
0.831112
0.829431
0.827758
0.826093
0.824436
0.822786
0.821145
0.819511
0.817884
0.816265
0.814653
0.813048
0.811449
0.809858
0.808273
0.806695
0.805123
0.803558
0.801998
0.800444
0.798897
0.797355
0.795819
0.794288
0.792763
0.791243
0.789729
0.78822
0.786717
0.785218
0.783725
0.782237
0.780755
0.779277
0.777804
0.776337
0.774875
0.773418
0.771966
0.770519
0.769077
0.76764
0.766208
0.764781
0.763359
0.761942
0.76053
0.759123
0.757721
0.756324
0.754932
0.753546
0.752164
0.750787
0.749416
0.748051
0.746691
0.745337
0.743989
0.742648
0.741313
0.739984
0.738663
0.737349
0.736042
0.734743
0.733452
0.732169
0.730894
0.729629
0.728372
0.727125
0.725887
0.724659
0.723442
0.722235
0.721038
0.719853
0.718679
0.717516
0.716366
0.715227
0.714101
0.712988
0.711887
0.710798
0.709723
0.708661
0.70761
0.706571
0.705542
0.704516
0.703484
1.02475
1.02474
1.02472
1.0247
1.02466
1.02461
1.02454
1.02446
1.02436
1.02424
1.02411
1.02395
1.02377
1.02357
1.02335
1.02311
1.02284
1.02255
1.02223
1.02188
1.02151
1.02112
1.02069
1.02024
1.01976
1.01925
1.01871
1.01814
1.01754
1.01691
1.01625
1.01557
1.01485
1.0141
1.01332
1.01251
1.01166
1.01079
1.00989
1.00896
1.008
1.00701
1.00599
1.00494
1.00386
1.00275
1.00161
1.00045
0.99926
0.998042
0.996797
0.995526
0.994229
0.992906
0.991559
0.990188
0.988793
0.987375
0.985935
0.984473
0.98299
0.981488
0.979966
0.978426
0.976867
0.975292
0.973701
0.972094
0.970472
0.968836
0.967187
0.965525
0.96385
0.962164
0.960467
0.95876
0.957043
0.955316
0.95358
0.951836
0.950083
0.948324
0.946556
0.944782
0.943002
0.941215
0.939423
0.937625
0.935822
0.934015
0.932203
0.930386
0.928566
0.926742
0.924915
0.923085
0.921251
0.919415
0.917577
0.915737
0.913894
0.91205
0.910204
0.908357
0.906508
0.904659
0.902809
0.900958
0.899107
0.897256
0.895404
0.893553
0.891702
0.889851
0.888001
0.886152
0.884303
0.882457
0.880611
0.878767
0.876925
0.875086
0.873249
0.871415
0.869584
0.867757
0.865934
0.864116
0.862302
0.860493
0.85869
0.856893
0.855102
0.853318
0.85154
0.849769
0.848006
0.84625
0.844501
0.842761
0.841028
0.839303
0.837586
0.835877
0.834176
0.832484
0.830799
0.829122
0.827454
0.825793
0.824141
0.822496
0.820859
0.819229
0.817607
0.815992
0.814384
0.812783
0.811189
0.809602
0.808022
0.806448
0.80488
0.803318
0.801763
0.800213
0.79867
0.797132
0.795599
0.794072
0.792551
0.791035
0.789524
0.788019
0.786519
0.785024
0.783535
0.782051
0.780571
0.779097
0.777628
0.776165
0.774706
0.773253
0.771804
0.770361
0.768923
0.76749
0.766062
0.764639
0.763221
0.761808
0.7604
0.758998
0.7576
0.756207
0.75482
0.753437
0.75206
0.750688
0.749322
0.747961
0.746606
0.745257
0.743914
0.742578
0.741248
0.739925
0.738609
0.7373
0.735998
0.734705
0.733419
0.732142
0.730873
0.729613
0.728361
0.727119
0.725887
0.724664
0.723451
0.722249
0.721057
0.719875
0.718705
0.717546
0.716399
0.715263
0.714139
0.713028
0.711929
0.710842
0.709768
0.708706
0.707656
0.706619
0.705592
0.704574
0.70356
0.702539
1.02475
1.02474
1.02472
1.02468
1.02464
1.02458
1.0245
1.02441
1.0243
1.02416
1.02401
1.02383
1.02363
1.02341
1.02316
1.02289
1.02259
1.02227
1.02192
1.02154
1.02113
1.0207
1.02023
1.01974
1.01922
1.01867
1.01808
1.01747
1.01683
1.01615
1.01545
1.01471
1.01395
1.01315
1.01232
1.01146
1.01057
1.00965
1.0087
1.00772
1.00671
1.00567
1.0046
1.0035
1.00237
1.00122
1.00004
0.998825
0.997588
0.996324
0.995035
0.993719
0.992378
0.991013
0.989624
0.988212
0.986777
0.98532
0.983842
0.982343
0.980825
0.979288
0.977733
0.976161
0.974572
0.972968
0.971348
0.969715
0.968068
0.966408
0.964736
0.963052
0.961357
0.959652
0.957937
0.956212
0.954478
0.952736
0.950986
0.949229
0.947464
0.945692
0.943914
0.94213
0.940341
0.938546
0.936745
0.93494
0.933131
0.931317
0.9295
0.927679
0.925854
0.924027
0.922196
0.920363
0.918527
0.91669
0.91485
0.913008
0.911165
0.909321
0.907475
0.905629
0.903781
0.901933
0.900085
0.898236
0.896387
0.894538
0.892689
0.890841
0.888993
0.887147
0.885301
0.883456
0.881612
0.87977
0.87793
0.876091
0.874256
0.872422
0.870592
0.868765
0.866942
0.865123
0.863309
0.8615
0.859696
0.857897
0.856105
0.854319
0.85254
0.850768
0.849002
0.847245
0.845494
0.843752
0.842017
0.840291
0.838572
0.836861
0.835159
0.833465
0.831779
0.830101
0.828431
0.82677
0.825116
0.82347
0.821832
0.820201
0.818578
0.816963
0.815354
0.813753
0.812159
0.810572
0.808991
0.807417
0.805849
0.804287
0.802732
0.801182
0.799639
0.798101
0.796568
0.795042
0.793521
0.792005
0.790494
0.788989
0.787489
0.785995
0.784505
0.783021
0.781542
0.780068
0.778599
0.777135
0.775677
0.774223
0.772775
0.771332
0.769894
0.768461
0.767034
0.765611
0.764194
0.762782
0.761375
0.759973
0.758576
0.757184
0.755797
0.754416
0.75304
0.751669
0.750304
0.748944
0.747589
0.746241
0.744899
0.743563
0.742233
0.74091
0.739594
0.738285
0.736984
0.73569
0.734404
0.733126
0.731857
0.730596
0.729343
0.7281
0.726866
0.725641
0.724426
0.723221
0.722026
0.720841
0.719667
0.718504
0.717351
0.71621
0.71508
0.713962
0.712855
0.711761
0.710678
0.709608
0.708549
0.707503
0.706469
0.705446
0.704434
0.70343
0.702429
0.701421
1.02475
1.02474
1.02471
1.02467
1.02462
1.02455
1.02446
1.02435
1.02422
1.02407
1.02389
1.02369
1.02346
1.02321
1.02293
1.02262
1.02229
1.02193
1.02153
1.02111
1.02067
1.02019
1.01968
1.01914
1.01856
1.01796
1.01733
1.01666
1.01597
1.01524
1.01448
1.01369
1.01286
1.01201
1.01112
1.01021
1.00926
1.00828
1.00728
1.00624
1.00517
1.00408
1.00295
1.0018
1.00062
0.999406
0.998169
0.996906
0.995616
0.9943
0.992959
0.991593
0.990203
0.98879
0.987353
0.985894
0.984414
0.982913
0.981392
0.979853
0.978295
0.976719
0.975127
0.97352
0.971897
0.970261
0.96861
0.966948
0.965273
0.963586
0.961889
0.960182
0.958465
0.956738
0.955003
0.95326
0.951509
0.949751
0.947985
0.946213
0.944435
0.942651
0.940862
0.939067
0.937267
0.935463
0.933655
0.931842
0.930026
0.928206
0.926383
0.924557
0.922728
0.920897
0.919063
0.917227
0.915389
0.91355
0.911709
0.909867
0.908024
0.906179
0.904334
0.902489
0.900643
0.898796
0.89695
0.895104
0.893258
0.891412
0.889567
0.887723
0.885879
0.884037
0.882196
0.880356
0.878518
0.876682
0.874848
0.873016
0.871188
0.869362
0.86754
0.865721
0.863908
0.862098
0.860294
0.858496
0.856704
0.854917
0.853138
0.851365
0.8496
0.847842
0.846091
0.844349
0.842614
0.840887
0.839169
0.837459
0.835757
0.834063
0.832377
0.8307
0.829031
0.82737
0.825717
0.824073
0.822436
0.820806
0.819185
0.817571
0.815964
0.814365
0.812772
0.811187
0.809608
0.808036
0.80647
0.80491
0.803357
0.801809
0.800268
0.798732
0.797202
0.795677
0.794158
0.792644
0.791135
0.789632
0.788134
0.786641
0.785153
0.783671
0.782193
0.780721
0.779254
0.777792
0.776335
0.774883
0.773437
0.771996
0.770559
0.769128
0.767703
0.766282
0.764867
0.763456
0.762051
0.760652
0.759257
0.757868
0.756483
0.755104
0.753731
0.752362
0.750999
0.749642
0.74829
0.746944
0.745604
0.74427
0.742943
0.741622
0.740308
0.739001
0.737701
0.736409
0.735125
0.733848
0.73258
0.731321
0.73007
0.728828
0.727595
0.726371
0.725157
0.723952
0.722757
0.721572
0.720397
0.719233
0.718079
0.716936
0.715803
0.714682
0.713572
0.712473
0.711386
0.710311
0.709247
0.708195
0.707155
0.706126
0.705108
0.704102
0.703106
0.702117
0.701131
0.700138
1.02475
1.02473
1.0247
1.02465
1.02459
1.02451
1.0244
1.02428
1.02412
1.02395
1.02374
1.02351
1.02325
1.02296
1.02264
1.02229
1.02192
1.02151
1.02107
1.0206
1.0201
1.01957
1.01901
1.01841
1.01778
1.01712
1.01643
1.0157
1.01494
1.01415
1.01333
1.01247
1.01159
1.01067
1.00972
1.00874
1.00773
1.00669
1.00561
1.00451
1.00338
1.00222
1.00103
0.999818
0.998575
0.997304
0.996007
0.994684
0.993336
0.991962
0.990564
0.989143
0.987698
0.986231
0.984742
0.983232
0.981702
0.980153
0.978586
0.977001
0.9754
0.973783
0.972151
0.970506
0.968847
0.967176
0.965493
0.963798
0.962094
0.96038
0.958656
0.956924
0.955183
0.953435
0.951679
0.949916
0.948147
0.946371
0.94459
0.942803
0.941011
0.939215
0.937413
0.935608
0.933798
0.931984
0.930167
0.928347
0.926524
0.924698
0.92287
0.921039
0.919206
0.917371
0.915534
0.913696
0.911857
0.910016
0.908174
0.906332
0.904489
0.902645
0.900801
0.898957
0.897114
0.89527
0.893426
0.891583
0.889741
0.887899
0.886059
0.884219
0.882381
0.880544
0.878708
0.876875
0.875043
0.873214
0.871387
0.869564
0.867743
0.865926
0.864114
0.862305
0.860502
0.858705
0.856913
0.855127
0.853348
0.851576
0.849812
0.848054
0.846305
0.844563
0.84283
0.841105
0.839388
0.837679
0.835979
0.834287
0.832604
0.830929
0.829263
0.827605
0.825955
0.824313
0.822679
0.821053
0.819435
0.817825
0.816222
0.814626
0.813037
0.811456
0.809881
0.808312
0.806751
0.805195
0.803646
0.802102
0.800565
0.799033
0.797507
0.795986
0.794471
0.792961
0.791456
0.789956
0.788462
0.786972
0.785488
0.784009
0.782535
0.781066
0.779602
0.778143
0.776689
0.775241
0.773797
0.772359
0.770926
0.769498
0.768076
0.766658
0.765246
0.76384
0.762438
0.761042
0.759651
0.758265
0.756885
0.75551
0.75414
0.752776
0.751417
0.750063
0.748715
0.747373
0.746037
0.744707
0.743383
0.742065
0.740755
0.739451
0.738155
0.736866
0.735585
0.734312
0.733048
0.731792
0.730544
0.729305
0.728076
0.726855
0.725644
0.724442
0.723249
0.722067
0.720894
0.719732
0.71858
0.717438
0.716306
0.715185
0.714075
0.712976
0.711888
0.710811
0.709745
0.70869
0.707647
0.706615
0.705594
0.704584
0.703585
0.702597
0.701618
0.700645
0.699676
0.698698
1.02475
1.02473
1.02469
1.02463
1.02456
1.02446
1.02433
1.02418
1.024
1.0238
1.02356
1.02329
1.02299
1.02266
1.0223
1.0219
1.02147
1.02101
1.02052
1.01999
1.01943
1.01884
1.01821
1.01755
1.01686
1.01613
1.01537
1.01457
1.01374
1.01288
1.01199
1.01106
1.0101
1.00911
1.00809
1.00704
1.00595
1.00484
1.0037
1.00253
1.00132
1.00009
0.998837
0.997553
0.996242
0.994904
0.993541
0.992153
0.990741
0.989304
0.987845
0.986363
0.984859
0.983333
0.981788
0.980223
0.97864
0.97704
0.975423
0.973791
0.972143
0.970483
0.968809
0.967124
0.965427
0.96372
0.962002
0.960276
0.958541
0.956798
0.955047
0.953289
0.951525
0.949754
0.947977
0.946194
0.944407
0.942614
0.940817
0.939015
0.937209
0.935399
0.933586
0.93177
0.92995
0.928128
0.926303
0.924475
0.922645
0.920814
0.91898
0.917145
0.915308
0.91347
0.911631
0.909791
0.90795
0.906109
0.904267
0.902425
0.900583
0.898741
0.896899
0.895057
0.893216
0.891376
0.889536
0.887697
0.885859
0.884022
0.882187
0.880353
0.878521
0.87669
0.874861
0.873035
0.871211
0.86939
0.867572
0.865757
0.863946
0.86214
0.860338
0.858541
0.856751
0.854966
0.853188
0.851418
0.849654
0.847899
0.846151
0.844411
0.84268
0.840957
0.839243
0.837537
0.83584
0.834152
0.832472
0.830802
0.829139
0.827485
0.82584
0.824203
0.822574
0.820953
0.81934
0.817735
0.816138
0.814548
0.812965
0.811389
0.80982
0.808258
0.806702
0.805152
0.803609
0.802072
0.80054
0.799014
0.797494
0.795979
0.79447
0.792965
0.791466
0.789972
0.788483
0.786999
0.785519
0.784045
0.782576
0.781112
0.779653
0.778199
0.77675
0.775306
0.773867
0.772433
0.771005
0.769581
0.768163
0.766751
0.765343
0.763941
0.762544
0.761153
0.759767
0.758386
0.757011
0.755641
0.754277
0.752918
0.751564
0.750216
0.748873
0.747537
0.746206
0.744881
0.743562
0.742249
0.740944
0.739645
0.738353
0.737069
0.735793
0.734525
0.733265
0.732014
0.730771
0.729537
0.728313
0.727097
0.725891
0.724694
0.723507
0.722329
0.721161
0.720003
0.718855
0.717717
0.716589
0.715472
0.714365
0.713268
0.712182
0.711107
0.710042
0.708988
0.707945
0.706913
0.705891
0.70488
0.70388
0.70289
0.701911
0.700942
0.699981
0.699026
0.698073
0.697112
1.02475
1.02472
1.02467
1.0246
1.02451
1.02439
1.02425
1.02407
1.02386
1.02361
1.02333
1.02302
1.02268
1.0223
1.02188
1.02143
1.02094
1.02042
1.01986
1.01927
1.01864
1.01798
1.01728
1.01655
1.01578
1.01497
1.01413
1.01326
1.01235
1.01141
1.01044
1.00943
1.00839
1.00732
1.00622
1.00509
1.00393
1.00274
1.00151
1.00026
0.998987
0.997682
0.99635
0.994991
0.993607
0.992198
0.990764
0.989306
0.987825
0.986321
0.984796
0.983249
0.981682
0.980095
0.97849
0.976868
0.975229
0.973575
0.971906
0.970224
0.96853
0.966824
0.965107
0.963381
0.961646
0.959902
0.95815
0.956391
0.954626
0.952854
0.951076
0.949292
0.947504
0.945711
0.943913
0.942111
0.940305
0.938495
0.936682
0.934866
0.933047
0.931225
0.929401
0.927574
0.925745
0.923914
0.922081
0.920247
0.918411
0.916574
0.914736
0.912897
0.911057
0.909217
0.907376
0.905535
0.903694
0.901853
0.900012
0.898171
0.89633
0.894491
0.892651
0.890813
0.888976
0.887139
0.885304
0.88347
0.881638
0.879807
0.877978
0.87615
0.874325
0.872502
0.870681
0.868862
0.867047
0.865235
0.863427
0.861622
0.859822
0.858028
0.856239
0.854456
0.852679
0.85091
0.849148
0.847394
0.845649
0.843911
0.842183
0.840463
0.838752
0.83705
0.835357
0.833674
0.831999
0.830333
0.828676
0.827028
0.825388
0.823757
0.822135
0.820521
0.818915
0.817317
0.815726
0.814144
0.812568
0.811
0.809439
0.807884
0.806337
0.804795
0.80326
0.80173
0.800207
0.798689
0.797176
0.795669
0.794167
0.79267
0.791178
0.789691
0.788209
0.786732
0.78526
0.783792
0.78233
0.780872
0.779419
0.777971
0.776528
0.77509
0.773657
0.77223
0.770807
0.769389
0.767977
0.76657
0.765169
0.763773
0.762382
0.760996
0.759617
0.758242
0.756873
0.75551
0.754152
0.752799
0.751453
0.750111
0.748775
0.747445
0.746121
0.744803
0.74349
0.742184
0.740885
0.739592
0.738306
0.737028
0.735758
0.734496
0.733242
0.731996
0.73076
0.729532
0.728314
0.727105
0.725905
0.724715
0.723534
0.722364
0.721202
0.720051
0.71891
0.717778
0.716656
0.715545
0.714443
0.713352
0.712271
0.7112
0.710139
0.709089
0.708049
0.707019
0.706
0.704991
0.703992
0.703004
0.702025
0.701057
0.700098
0.699148
0.698206
0.697269
0.696334
0.695391
1.02475
1.02471
1.02465
1.02457
1.02446
1.02432
1.02414
1.02393
1.02368
1.02339
1.02306
1.0227
1.0223
1.02186
1.02138
1.02087
1.02031
1.01972
1.01909
1.01842
1.01771
1.01697
1.01619
1.01537
1.01452
1.01363
1.01271
1.01175
1.01075
1.00973
1.00867
1.00757
1.00645
1.00529
1.0041
1.00288
1.00163
1.00036
0.999053
0.99772
0.99636
0.994973
0.993561
0.992124
0.990662
0.989176
0.987667
0.986136
0.984583
0.983008
0.981413
0.979799
0.978166
0.976516
0.974849
0.973167
0.971471
0.969761
0.96804
0.966307
0.964565
0.962814
0.961054
0.959287
0.957514
0.955734
0.953948
0.952157
0.950362
0.948562
0.946757
0.944949
0.943138
0.941323
0.939505
0.937685
0.935861
0.934036
0.932208
0.930378
0.928546
0.926713
0.924878
0.923042
0.921204
0.919366
0.917526
0.915686
0.913845
0.912004
0.910163
0.908321
0.906479
0.904637
0.902796
0.900954
0.899114
0.897273
0.895434
0.893595
0.891757
0.889921
0.888085
0.886251
0.884418
0.882587
0.880757
0.878929
0.877103
0.875279
0.873457
0.871638
0.86982
0.868005
0.866193
0.864385
0.862579
0.860777
0.85898
0.857187
0.8554
0.853619
0.851844
0.850076
0.848316
0.846564
0.84482
0.843085
0.84136
0.839643
0.837936
0.836238
0.83455
0.832871
0.831202
0.829542
0.827891
0.82625
0.824617
0.822994
0.821379
0.819773
0.818175
0.816585
0.815004
0.81343
0.811864
0.810305
0.808753
0.807208
0.80567
0.804138
0.802612
0.801093
0.799579
0.79807
0.796567
0.79507
0.793577
0.79209
0.790607
0.789129
0.787656
0.786187
0.784724
0.783264
0.78181
0.78036
0.778915
0.777475
0.776039
0.774609
0.773183
0.771763
0.770347
0.768937
0.767532
0.766132
0.764737
0.763348
0.761964
0.760586
0.759214
0.757846
0.756485
0.755129
0.753779
0.752434
0.751095
0.749762
0.748434
0.747112
0.745796
0.744485
0.743181
0.741882
0.74059
0.739305
0.738027
0.736755
0.735492
0.734237
0.73299
0.731751
0.730522
0.729301
0.72809
0.726889
0.725697
0.724514
0.723342
0.722179
0.721026
0.719883
0.71875
0.717627
0.716513
0.71541
0.714316
0.713232
0.712158
0.711094
0.71004
0.708996
0.707962
0.706938
0.705924
0.704919
0.703924
0.70294
0.701964
0.700999
0.700042
0.699095
0.698157
0.697227
0.696305
0.695387
0.69447
0.693545
1.02474
1.0247
1.02463
1.02453
1.02439
1.02422
1.02401
1.02375
1.02346
1.02312
1.02274
1.02232
1.02185
1.02134
1.02079
1.0202
1.01957
1.01889
1.01818
1.01742
1.01663
1.0158
1.01493
1.01402
1.01307
1.01209
1.01107
1.01002
1.00893
1.0078
1.00665
1.00546
1.00424
1.00299
1.00171
1.0004
0.99906
0.997693
0.996299
0.994878
0.993432
0.99196
0.990464
0.988944
0.9874
0.985835
0.984248
0.98264
0.981012
0.979364
0.977698
0.976014
0.974313
0.972598
0.970868
0.969125
0.967371
0.965606
0.963832
0.962049
0.96026
0.958464
0.956662
0.954856
0.953045
0.95123
0.949412
0.94759
0.945766
0.943939
0.94211
0.940279
0.938446
0.936611
0.934774
0.932937
0.931097
0.929257
0.927416
0.925573
0.92373
0.921887
0.920043
0.918198
0.916353
0.914509
0.912664
0.910819
0.908974
0.907129
0.905285
0.903442
0.901599
0.899757
0.897916
0.896075
0.894236
0.892398
0.890561
0.888726
0.886892
0.885059
0.883228
0.8814
0.879572
0.877747
0.875924
0.874103
0.872285
0.870469
0.868655
0.866844
0.865036
0.86323
0.861428
0.85963
0.857835
0.856045
0.85426
0.852481
0.850708
0.848941
0.847183
0.845432
0.84369
0.841957
0.840234
0.838521
0.836817
0.835124
0.83344
0.831766
0.830103
0.828449
0.826806
0.825172
0.823547
0.821932
0.820326
0.818728
0.81714
0.81556
0.813989
0.812425
0.810869
0.809321
0.80778
0.806246
0.804719
0.803199
0.801684
0.800176
0.798673
0.797176
0.795685
0.794198
0.792717
0.79124
0.789768
0.788301
0.786839
0.78538
0.783927
0.782477
0.781033
0.779592
0.778157
0.776725
0.775299
0.773877
0.77246
0.771048
0.769641
0.768239
0.766842
0.76545
0.764064
0.762683
0.761307
0.759937
0.758573
0.757214
0.755861
0.754514
0.753172
0.751836
0.750506
0.749182
0.747863
0.74655
0.745243
0.743942
0.742647
0.741357
0.740074
0.738798
0.737528
0.736265
0.735009
0.733762
0.732522
0.731291
0.73007
0.728857
0.727654
0.726461
0.725277
0.724104
0.72294
0.721787
0.720643
0.719509
0.718386
0.717272
0.716169
0.715075
0.713991
0.712916
0.711852
0.710797
0.709752
0.708716
0.70769
0.706674
0.705667
0.704669
0.703681
0.702702
0.701733
0.700772
0.699821
0.698878
0.697945
0.697019
0.696102
0.695193
0.69429
0.693391
0.692493
0.691586
1.02474
1.02468
1.02459
1.02447
1.02431
1.0241
1.02384
1.02354
1.02319
1.02279
1.02235
1.02185
1.02131
1.02072
1.02009
1.01941
1.01869
1.01792
1.01712
1.01627
1.01537
1.01444
1.01347
1.01246
1.01141
1.01033
1.0092
1.00805
1.00686
1.00563
1.00437
1.00308
1.00176
1.00041
0.999035
0.997628
0.996193
0.994731
0.993244
0.991731
0.990194
0.988634
0.98705
0.985445
0.983818
0.982171
0.980503
0.978816
0.977111
0.975389
0.97365
0.971896
0.970127
0.968346
0.966552
0.964749
0.962937
0.961118
0.959292
0.957462
0.955626
0.953788
0.951946
0.950102
0.948256
0.946409
0.94456
0.94271
0.940859
0.939008
0.937156
0.935303
0.93345
0.931597
0.929744
0.927891
0.926037
0.924184
0.922331
0.920478
0.918625
0.916773
0.914921
0.91307
0.911219
0.909369
0.90752
0.905672
0.903824
0.901978
0.900133
0.898289
0.896446
0.894605
0.892765
0.890927
0.88909
0.887256
0.885423
0.883592
0.881762
0.879935
0.878111
0.876288
0.874468
0.87265
0.870835
0.869022
0.867212
0.865405
0.8636
0.861799
0.860001
0.858206
0.856415
0.854628
0.852846
0.851069
0.849298
0.847533
0.845775
0.844026
0.842285
0.840554
0.838833
0.837122
0.835421
0.833731
0.832052
0.830384
0.828726
0.827079
0.825442
0.823816
0.8222
0.820593
0.818996
0.817409
0.815831
0.814262
0.812701
0.811149
0.809605
0.808068
0.80654
0.805018
0.803504
0.801996
0.800494
0.798999
0.797509
0.796025
0.794546
0.793073
0.791604
0.79014
0.788681
0.787226
0.785775
0.784329
0.782887
0.781449
0.780016
0.778586
0.777161
0.775741
0.774324
0.772913
0.771505
0.770103
0.768705
0.767313
0.765925
0.764543
0.763166
0.761794
0.760427
0.759067
0.757711
0.756362
0.755018
0.75368
0.752348
0.751022
0.749702
0.748387
0.747079
0.745776
0.744479
0.743189
0.741904
0.740625
0.739352
0.738085
0.736825
0.735572
0.734325
0.733086
0.731856
0.730633
0.729419
0.728215
0.72702
0.725836
0.724661
0.723497
0.722342
0.721199
0.720065
0.718942
0.717829
0.716726
0.715634
0.714551
0.713478
0.712414
0.711361
0.710317
0.709282
0.708257
0.707241
0.706234
0.705237
0.704248
0.703269
0.702298
0.701336
0.700383
0.699439
0.698503
0.697575
0.696656
0.695745
0.694841
0.693945
0.693056
0.692173
0.691293
0.690413
0.689524
1.02473
1.02466
1.02456
1.0244
1.0242