/*--------------------------------*- C++ -*----------------------------------*\
  =========                 |
  \\      /  F ield         | OpenFOAM: The Open Source CFD Toolbox
   \\    /   O peration     | Website:  https://openfoam.org
    \\  /    A nd           | Version:  7
     \\/     M anipulation  |
\*---------------------------------------------------------------------------*/
FoamFile
{
    version     2.0;
    format      ascii;
    class       volScalarField;
    location    "5761";
    object      T;
}
// * * * * * * * * * * * * * * * * * * * * * * * * * * * * * * * * * * * * * //

dimensions      [0 0 0 1 0 0 0];

internalField   nonuniform List<scalar> 
27600
(
453.154
453.158
453.163
453.171
453.182
453.197
453.216
453.24
453.27
453.305
453.347
453.396
453.452
453.516
453.587
453.667
453.756
453.853
453.96
454.077
454.204
454.342
454.49
454.649
454.82
455.002
455.196
455.402
455.621
455.852
456.096
456.354
456.624
456.908
457.205
457.516
457.841
458.18
458.532
458.899
459.28
459.675
460.084
460.508
460.945
461.397
461.863
462.344
462.839
463.347
463.87
464.407
464.959
465.524
466.102
466.695
467.301
467.921
468.554
469.201
469.86
470.532
471.217
471.914
472.623
473.344
474.077
474.821
475.576
476.342
477.119
477.906
478.703
479.51
480.326
481.153
481.988
482.832
483.685
484.546
485.416
486.294
487.18
488.074
488.976
489.885
490.801
491.724
492.655
493.592
494.536
495.487
496.444
497.408
498.378
499.354
500.337
501.325
502.319
503.319
504.324
505.335
506.352
507.374
508.401
509.434
510.471
511.514
512.562
513.614
514.672
515.734
516.801
517.872
518.948
520.029
521.114
522.203
523.296
524.393
525.494
526.6
527.708
528.821
529.936
531.055
532.177
533.302
534.429
535.559
536.691
537.825
538.96
540.097
541.235
542.375
543.515
544.656
545.797
546.938
548.08
549.221
550.362
551.503
552.644
553.784
554.923
556.062
557.2
558.337
559.473
560.609
561.744
562.878
564.011
565.143
566.274
567.405
568.535
569.664
570.793
571.921
573.049
574.176
575.303
576.43
577.556
578.683
579.809
580.935
582.061
583.187
584.313
585.44
586.566
587.693
588.82
589.947
591.074
592.202
593.329
594.458
595.586
596.715
597.844
598.973
600.102
601.232
602.362
603.493
604.623
605.754
606.885
608.017
609.149
610.281
611.414
612.546
613.679
614.812
615.945
617.078
618.212
619.344
620.477
621.609
622.74
623.871
625
626.129
627.255
628.38
629.503
630.623
631.741
632.856
633.968
635.076
636.18
637.28
638.376
639.466
640.551
641.631
642.704
643.771
644.831
645.884
646.929
647.967
648.996
650.017
651.029
652.032
653.026
654.011
654.988
655.959
656.929
657.908
453.154
453.158
453.163
453.172
453.183
453.198
453.218
453.243
453.273
453.31
453.353
453.402
453.46
453.525
453.598
453.679
453.77
453.869
453.978
454.097
454.226
454.366
454.517
454.678
454.852
455.036
455.233
455.442
455.664
455.898
456.146
456.406
456.68
456.967
457.267
457.582
457.91
458.252
458.608
458.978
459.363
459.761
460.174
460.601
461.042
461.498
461.967
462.451
462.95
463.462
463.989
464.529
465.084
465.652
466.235
466.831
467.44
468.064
468.7
469.35
470.012
470.687
471.375
472.075
472.787
473.511
474.247
474.993
475.751
476.52
477.299
478.089
478.888
479.698
480.517
481.345
482.182
483.029
483.884
484.747
485.619
486.499
487.386
488.282
489.185
490.096
491.013
491.938
492.87
493.809
494.755
495.707
496.665
497.63
498.602
499.579
500.562
501.552
502.547
503.548
504.554
505.567
506.584
507.607
508.635
509.669
510.707
511.751
512.799
513.853
514.911
515.974
517.042
518.114
519.191
520.272
521.357
522.447
523.541
524.639
525.74
526.846
527.955
529.068
530.184
531.304
532.426
533.551
534.678
535.808
536.94
538.074
539.21
540.347
541.485
542.624
543.764
544.904
546.045
547.186
548.327
549.468
550.609
551.75
552.89
554.029
555.168
556.306
557.444
558.58
559.716
560.851
561.985
563.119
564.251
565.383
566.514
567.644
568.773
569.902
571.03
572.158
573.285
574.412
575.539
576.665
577.791
578.917
580.043
581.168
582.294
583.42
584.546
585.672
586.798
587.924
589.051
590.177
591.304
592.431
593.559
594.687
595.815
596.943
598.072
599.2
600.33
601.459
602.589
603.719
604.849
605.979
607.11
608.241
609.372
610.504
611.636
612.768
613.9
615.033
616.165
617.298
618.43
619.562
620.694
621.825
622.956
624.085
625.214
626.341
627.466
628.59
629.711
630.83
631.947
633.06
634.17
635.277
636.379
637.478
638.571
639.66
640.744
641.821
642.893
643.958
645.016
646.067
647.11
648.146
649.173
650.192
651.202
652.203
653.196
654.179
655.155
656.124
657.092
658.07
453.154
453.158
453.164
453.173
453.185
453.201
453.222
453.249
453.281
453.319
453.364
453.417
453.477
453.545
453.621
453.707
453.801
453.905
454.018
454.142
454.276
454.421
454.576
454.744
454.922
455.113
455.316
455.532
455.76
456.001
456.255
456.522
456.803
457.097
457.405
457.726
458.062
458.412
458.775
459.153
459.545
459.952
460.372
460.807
461.256
461.719
462.197
462.689
463.195
463.715
464.249
464.798
465.36
465.936
466.526
467.13
467.747
468.377
469.021
469.678
470.347
471.029
471.724
472.431
473.149
473.88
474.621
475.374
476.138
476.912
477.697
478.492
479.297
480.111
480.935
481.768
482.61
483.461
484.32
485.188
486.064
486.947
487.839
488.738
489.645
490.559
491.48
492.409
493.344
494.286
495.234
496.19
497.151
498.119
499.093
500.073
501.059
502.051
503.048
504.052
505.06
506.075
507.095
508.12
509.15
510.185
511.226
512.271
513.322
514.377
515.437
516.502
517.571
518.645
519.723
520.805
521.892
522.983
524.079
525.178
526.281
527.387
528.498
529.611
530.728
531.848
532.971
534.097
535.225
536.355
537.488
538.622
539.757
540.894
542.032
543.171
544.31
545.45
546.59
547.731
548.871
550.011
551.151
552.291
553.43
554.568
555.706
556.843
557.979
559.114
560.249
561.383
562.516
563.648
564.779
565.91
567.039
568.168
569.297
570.424
571.551
572.678
573.804
574.93
576.056
577.181
578.306
579.431
580.556
581.681
582.806
583.93
585.056
586.181
587.306
588.432
589.557
590.683
591.809
592.936
594.063
595.19
596.317
597.444
598.572
599.7
600.828
601.957
603.085
604.214
605.344
606.473
607.603
608.733
609.863
610.993
612.124
613.255
614.386
615.517
616.648
617.779
618.91
620.04
621.17
622.299
623.428
624.555
625.681
626.806
627.928
629.049
630.168
631.284
632.397
633.508
634.614
635.717
636.816
637.911
639.001
640.086
641.165
642.239
643.306
644.367
645.421
646.468
647.507
648.539
649.562
650.577
651.583
652.58
653.569
654.548
655.52
656.486
657.451
658.425
453.155
453.159
453.165
453.175
453.188
453.206
453.229
453.257
453.292
453.334
453.383
453.439
453.504
453.576
453.658
453.749
453.849
453.959
454.08
454.21
454.352
454.505
454.669
454.844
455.032
455.232
455.444
455.669
455.907
456.158
456.423
456.7
456.992
457.297
457.616
457.949
458.296
458.657
459.032
459.422
459.825
460.243
460.676
461.122
461.583
462.059
462.548
463.052
463.57
464.102
464.648
465.208
465.782
466.369
466.971
467.586
468.214
468.856
469.51
470.178
470.858
471.55
472.255
472.972
473.7
474.44
475.191
475.953
476.726
477.508
478.302
479.105
479.917
480.739
481.571
482.411
483.26
484.117
484.983
485.857
486.739
487.629
488.526
489.431
490.343
491.262
492.189
493.122
494.062
495.009
495.962
496.921
497.887
498.859
499.837
500.821
501.811
502.807
503.808
504.815
505.827
506.845
507.868
508.896
509.929
510.968
512.011
513.06
514.113
515.171
516.233
517.3
518.372
519.448
520.529
521.614
522.703
523.796
524.893
525.994
527.099
528.207
529.319
530.434
531.552
532.674
533.797
534.924
536.053
537.183
538.316
539.45
540.585
541.722
542.86
543.998
545.137
546.276
547.415
548.554
549.693
550.832
551.971
553.109
554.246
555.383
556.519
557.654
558.789
559.922
561.055
562.187
563.318
564.448
565.578
566.706
567.834
568.961
570.088
571.214
572.339
573.464
574.589
575.713
576.837
577.961
579.085
580.209
581.332
582.456
583.579
584.703
585.827
586.951
588.075
589.199
590.324
591.449
592.574
593.699
594.824
595.95
597.076
598.202
599.329
600.455
601.582
602.709
603.837
604.964
606.092
607.22
608.348
609.476
610.605
611.733
612.862
613.991
615.12
616.249
617.378
618.506
619.635
620.762
621.889
623.016
624.141
625.265
626.387
627.508
628.627
629.744
630.858
631.97
633.078
634.183
635.285
636.383
637.476
638.565
639.649
640.728
641.802
642.869
643.931
644.985
646.033
647.074
648.107
649.132
650.149
651.158
652.158
653.149
654.132
655.106
656.073
657.033
657.993
658.962
453.155
453.159
453.167
453.178
453.193
453.212
453.238
453.27
453.308
453.354
453.408
453.47
453.541
453.62
453.709
453.808
453.916
454.035
454.165
454.305
454.457
454.62
454.795
454.982
455.182
455.394
455.619
455.857
456.108
456.373
456.651
456.943
457.249
457.569
457.903
458.251
458.613
458.99
459.381
459.786
460.205
460.639
461.087
461.549
462.026
462.517
463.023
463.542
464.076
464.623
465.185
465.761
466.35
466.953
467.57
468.2
468.843
469.499
470.168
470.85
471.544
472.25
472.969
473.699
474.44
475.192
475.955
476.729
477.513
478.308
479.112
479.925
480.748
481.58
482.421
483.271
484.129
484.995
485.869
486.752
487.642
488.539
489.444
490.356
491.276
492.202
493.135
494.075
495.021
495.974
496.933
497.899
498.87
499.848
500.831
501.82
502.815
503.816
504.822
505.833
506.85
507.872
508.899
509.932
510.969
512.012
513.059
514.111
515.168
516.229
517.295
518.365
519.44
520.52
521.603
522.691
523.783
524.879
525.978
527.082
528.189
529.299
530.413
531.53
532.65
533.773
534.898
536.025
537.155
538.286
539.419
540.553
541.688
542.825
543.962
545.099
546.237
547.375
548.513
549.65
550.788
551.925
553.061
554.197
555.332
556.467
557.601
558.733
559.865
560.997
562.127
563.256
564.385
565.513
566.64
567.766
568.891
570.016
571.141
572.264
573.388
574.511
575.633
576.756
577.878
579
580.121
581.243
582.365
583.487
584.609
585.731
586.853
587.976
589.098
590.221
591.344
592.467
593.591
594.714
595.838
596.962
598.087
599.211
600.336
601.461
602.586
603.711
604.836
605.962
607.087
608.213
609.339
610.465
611.591
612.718
613.844
614.97
616.096
617.222
618.348
619.473
620.598
621.722
622.845
623.968
625.088
626.208
627.326
628.441
629.555
630.666
631.774
632.88
633.982
635.08
636.175
637.266
638.352
639.433
640.51
641.581
642.647
643.706
644.759
645.806
646.845
647.878
648.903
649.92
650.929
651.929
652.921
653.905
654.88
655.847
656.806
657.76
658.713
659.675
453.155
453.16
453.169
453.181
453.198
453.221
453.25
453.286
453.33
453.381
453.441
453.511
453.589
453.677
453.776
453.884
454.003
454.133
454.275
454.428
454.592
454.769
454.959
455.161
455.375
455.603
455.844
456.099
456.367
456.649
456.945
457.255
457.579
457.917
458.27
458.637
459.018
459.414
459.824
460.249
460.688
461.141
461.609
462.091
462.588
463.099
463.624
464.163
464.716
465.283
465.864
466.459
467.068
467.69
468.325
468.974
469.636
470.31
470.997
471.696
472.408
473.131
473.866
474.612
475.369
476.137
476.915
477.703
478.501
479.309
480.127
480.953
481.789
482.633
483.486
484.347
485.216
486.093
486.978
487.87
488.77
489.677
490.591
491.512
492.44
493.375
494.316
495.264
496.218
497.178
498.145
499.117
500.096
501.08
502.07
503.065
504.067
505.073
506.085
507.102
508.125
509.152
510.185
511.222
512.264
513.312
514.364
515.42
516.481
517.547
518.617
519.692
520.771
521.854
522.941
524.032
525.127
526.226
527.329
528.436
529.545
530.659
531.775
532.894
534.016
535.14
536.267
537.395
538.526
539.657
540.791
541.925
543.06
544.195
545.331
546.468
547.604
548.74
549.876
551.012
552.147
553.282
554.416
555.549
556.682
557.813
558.944
560.074
561.203
562.331
563.458
564.585
565.71
566.835
567.959
569.082
570.205
571.327
572.448
573.569
574.69
575.81
576.93
578.05
579.17
580.29
581.409
582.529
583.649
584.768
585.888
587.008
588.129
589.249
590.37
591.491
592.612
593.733
594.854
595.976
597.098
598.22
599.342
600.464
601.587
602.709
603.832
604.955
606.078
607.201
608.324
609.447
610.57
611.693
612.816
613.939
615.062
616.185
617.308
618.43
619.552
620.673
621.793
622.913
624.031
625.148
626.263
627.377
628.488
629.598
630.704
631.808
632.909
634.007
635.101
636.191
637.277
638.359
639.436
640.508
641.575
642.636
643.692
644.742
645.785
646.821
647.851
648.873
649.888
650.895
651.894
652.885
653.867
654.841
655.807
656.765
657.716
658.662
659.606
660.561
453.155
453.162
453.172
453.186
453.206
453.232
453.266
453.307
453.357
453.416
453.484
453.562
453.651
453.75
453.86
453.981
454.113
454.257
454.413
454.581
454.762
454.956
455.163
455.383
455.616
455.863
456.124
456.399
456.687
456.991
457.308
457.64
457.986
458.346
458.722
459.111
459.516
459.935
460.368
460.816
461.279
461.756
462.247
462.753
463.273
463.807
464.356
464.919
465.495
466.085
466.69
467.307
467.939
468.583
469.241
469.912
470.595
471.291
471.999
472.719
473.451
474.194
474.948
475.713
476.488
477.274
478.07
478.875
479.69
480.514
481.347
482.188
483.038
483.897
484.763
485.637
486.519
487.409
488.306
489.21
490.121
491.039
491.964
492.896
493.834
494.778
495.729
496.686
497.649
498.618
499.593
500.574
501.561
502.553
503.55
504.553
505.561
506.575
507.594
508.617
509.646
510.68
511.719
512.762
513.81
514.863
515.92
516.982
518.049
519.119
520.194
521.274
522.357
523.444
524.536
525.631
526.73
527.833
528.94
530.05
531.163
532.279
533.398
534.519
535.643
536.769
537.897
539.027
540.158
541.291
542.424
543.558
544.692
545.827
546.961
548.096
549.231
550.365
551.499
552.632
553.764
554.896
556.027
557.157
558.286
559.414
560.541
561.668
562.793
563.917
565.041
566.164
567.286
568.407
569.527
570.647
571.766
572.885
574.003
575.121
576.238
577.356
578.473
579.59
580.707
581.824
582.941
584.058
585.175
586.293
587.41
588.528
589.646
590.764
591.882
593.001
594.12
595.238
596.357
597.477
598.596
599.716
600.835
601.955
603.074
604.194
605.314
606.434
607.554
608.673
609.793
610.913
612.032
613.152
614.271
615.391
616.51
617.628
618.746
619.864
620.981
622.097
623.212
624.326
625.438
626.549
627.657
628.763
629.867
630.969
632.067
633.162
634.254
635.342
636.426
637.506
638.582
639.653
640.719
641.78
642.836
643.886
644.93
645.968
646.999
648.024
649.041
650.052
651.055
652.05
653.038
654.017
654.989
655.952
656.907
657.855
658.796
659.732
660.667
661.613
453.156
453.163
453.175
453.192
453.215
453.246
453.285
453.334
453.391
453.459
453.538
453.627
453.728
453.84
453.964
454.1
454.248
454.409
454.583
454.77
454.97
455.184
455.412
455.653
455.909
456.179
456.463
456.762
457.075
457.403
457.745
458.103
458.475
458.862
459.264
459.68
460.111
460.557
461.018
461.493
461.983
462.488
463.006
463.539
464.087
464.648
465.224
465.814
466.417
467.034
467.665
468.309
468.967
469.637
470.32
471.016
471.725
472.445
473.177
473.921
474.675
475.441
476.217
477.003
477.8
478.606
479.421
480.245
481.079
481.921
482.771
483.629
484.496
485.37
486.252
487.141
488.038
488.941
489.852
490.769
491.693
492.623
493.56
494.504
495.453
496.409
497.37
498.338
499.311
500.29
501.274
502.264
503.26
504.261
505.267
506.278
507.294
508.316
509.342
510.374
511.41
512.45
513.496
514.546
515.601
516.66
517.723
518.791
519.863
520.94
522.02
523.105
524.193
525.286
526.382
527.482
528.585
529.693
530.803
531.917
533.033
534.153
535.274
536.399
537.525
538.653
539.782
540.913
542.045
543.177
544.31
545.443
546.577
547.71
548.843
549.976
551.108
552.24
553.37
554.5
555.629
556.758
557.885
559.011
560.136
561.26
562.383
563.506
564.627
565.747
566.866
567.985
569.102
570.219
571.336
572.452
573.567
574.682
575.796
576.91
578.025
579.138
580.252
581.366
582.48
583.594
584.708
585.822
586.937
588.051
589.166
590.281
591.396
592.512
593.627
594.743
595.859
596.975
598.092
599.208
600.324
601.441
602.557
603.674
604.79
605.907
607.023
608.139
609.255
610.371
611.487
612.603
613.718
614.833
615.948
617.063
618.177
619.291
620.404
621.516
622.627
623.737
624.845
625.952
627.057
628.16
629.26
630.358
631.453
632.544
633.633
634.718
635.799
636.876
637.949
639.017
640.08
641.139
642.193
643.241
644.283
645.32
646.351
647.375
648.393
649.404
650.408
651.405
652.395
653.377
654.352
655.319
656.278
657.229
658.172
659.108
660.038
660.963
661.889
662.824
453.156
453.165
453.179
453.2
453.228
453.264
453.31
453.367
453.434
453.513
453.604
453.707
453.822
453.95
454.091
454.245
454.413
454.594
454.789
454.998
455.221
455.459
455.711
455.978
456.259
456.556
456.867
457.194
457.536
457.892
458.264
458.651
459.053
459.47
459.902
460.349
460.812
461.288
461.78
462.286
462.807
463.343
463.893
464.457
465.035
465.628
466.234
466.854
467.488
468.135
468.796
469.469
470.156
470.856
471.567
472.292
473.028
473.775
474.534
475.304
476.084
476.874
477.675
478.485
479.304
480.132
480.969
481.815
482.668
483.53
484.399
485.276
486.16
487.052
487.95
488.856
489.768
490.687
491.612
492.544
493.482
494.426
495.376
496.332
497.294
498.262
499.235
500.214
501.198
502.188
503.183
504.183
505.188
506.199
507.214
508.235
509.26
510.29
511.325
512.364
513.408
514.457
515.51
516.567
517.629
518.695
519.765
520.84
521.918
523.001
524.087
525.177
526.272
527.369
528.471
529.576
530.685
531.796
532.911
534.029
535.149
536.272
537.397
538.524
539.652
540.782
541.913
543.044
544.176
545.308
546.441
547.573
548.705
549.836
550.967
552.097
553.226
554.355
555.482
556.608
557.733
558.857
559.98
561.102
562.222
563.342
564.46
565.577
566.694
567.809
568.924
570.038
571.151
572.263
573.375
574.486
575.597
576.708
577.818
578.929
580.039
581.149
582.259
583.369
584.48
585.591
586.701
587.812
588.924
590.035
591.147
592.259
593.371
594.484
595.596
596.709
597.822
598.935
600.048
601.161
602.274
603.386
604.499
605.612
606.725
607.837
608.949
610.061
611.173
612.285
613.396
614.507
615.617
616.727
617.837
618.946
620.055
621.162
622.269
623.375
624.479
625.582
626.682
627.781
628.877
629.971
631.062
632.149
633.233
634.314
635.391
636.464
637.533
638.597
639.656
640.711
641.761
642.806
643.845
644.879
645.906
646.928
647.944
648.954
649.956
650.953
651.942
652.924
653.899
654.867
655.828
656.78
657.726
658.664
659.594
660.518
661.436
662.35
663.264
664.188
453.157
453.168
453.185
453.209
453.243
453.286
453.341
453.408
453.487
453.579
453.685
453.804
453.937
454.084
454.245
454.42
454.611
454.816
455.035
455.27
455.52
455.785
456.066
456.362
456.674
457.001
457.344
457.703
458.077
458.466
458.871
459.292
459.728
460.179
460.645
461.127
461.624
462.135
462.662
463.203
463.758
464.329
464.913
465.512
466.124
466.751
467.391
468.045
468.712
469.393
470.086
470.793
471.512
472.243
472.986
473.741
474.508
475.285
476.073
476.871
477.679
478.496
479.323
480.158
481.002
481.854
482.714
483.582
484.457
485.34
486.23
487.126
488.03
488.94
489.856
490.779
491.708
492.643
493.584
494.531
495.484
496.443
497.407
498.376
499.352
500.332
501.318
502.309
503.305
504.306
505.313
506.324
507.34
508.36
509.386
510.416
511.451
512.49
513.534
514.582
515.635
516.692
517.753
518.818
519.888
520.961
522.038
523.12
524.205
525.294
526.387
527.484
528.584
529.688
530.795
531.905
533.019
534.135
535.255
536.377
537.501
538.627
539.755
540.885
542.015
543.146
544.278
545.41
546.542
547.674
548.805
549.935
551.065
552.194
553.322
554.449
555.574
556.699
557.822
558.943
560.064
561.183
562.301
563.417
564.533
565.647
566.76
567.872
568.983
570.093
571.202
572.311
573.419
574.526
575.633
576.74
577.846
578.952
580.058
581.164
582.27
583.376
584.483
585.589
586.696
587.803
588.91
590.018
591.126
592.234
593.342
594.451
595.56
596.669
597.778
598.887
599.996
601.106
602.215
603.324
604.433
605.542
606.65
607.759
608.867
609.975
611.082
612.189
613.296
614.402
615.508
616.613
617.718
618.823
619.926
621.029
622.131
623.232
624.331
625.429
626.525
627.619
628.711
629.8
630.886
631.97
633.049
634.125
635.197
636.265
637.329
638.388
639.443
640.493
641.538
642.577
643.612
644.641
645.664
646.682
647.694
648.699
649.699
650.692
651.679
652.659
653.632
654.598
655.558
656.51
657.455
658.393
659.324
660.248
661.165
662.076
662.981
663.882
664.785
665.698
453.158
453.171
453.192
453.222
453.262
453.314
453.38
453.459
453.552
453.66
453.784
453.922
454.076
454.245
454.43
454.631
454.847
455.08
455.328
455.593
455.874
456.171
456.485
456.814
457.16
457.522
457.901
458.295
458.706
459.132
459.575
460.033
460.506
460.996
461.5
462.02
462.555
463.105
463.67
464.249
464.843
465.451
466.074
466.71
467.36
468.024
468.701
469.392
470.096
470.812
471.542
472.284
473.038
473.803
474.58
475.369
476.167
476.977
477.795
478.624
479.461
480.307
481.161
482.023
482.893
483.771
484.655
485.546
486.444
487.349
488.26
489.177
490.101
491.03
491.965
492.906
493.853
494.805
495.763
496.726
497.694
498.668
499.647
500.631
501.62
502.614
503.613
504.617
505.625
506.639
507.657
508.679
509.707
510.738
511.774
512.815
513.86
514.909
515.962
517.02
518.081
519.147
520.216
521.29
522.368
523.449
524.534
525.623
526.715
527.811
528.911
530.014
531.121
532.23
533.343
534.46
535.579
536.7
537.824
538.951
540.079
541.208
542.339
543.471
544.603
545.735
546.868
548
549.131
550.261
551.391
552.519
553.646
554.771
555.896
557.018
558.139
559.259
560.377
561.494
562.609
563.722
564.835
565.946
567.055
568.163
569.271
570.377
571.482
572.586
573.69
574.793
575.895
576.997
578.099
579.2
580.302
581.403
582.504
583.606
584.707
585.809
586.911
588.014
589.117
590.22
591.323
592.427
593.531
594.636
595.741
596.846
597.951
599.056
600.161
601.266
602.371
603.476
604.581
605.686
606.79
607.895
608.998
610.102
611.205
612.307
613.409
614.511
615.612
616.712
617.812
618.911
620.009
621.106
622.203
623.299
624.393
625.486
626.577
627.666
628.753
629.837
630.919
631.997
633.072
634.143
635.21
636.272
637.331
638.384
639.433
640.477
641.516
642.55
643.579
644.602
645.619
646.631
647.638
648.638
649.632
650.62
651.602
652.578
653.548
654.51
655.467
656.416
657.359
658.295
659.225
660.147
661.063
661.972
662.875
663.772
664.664
665.553
666.443
667.344
453.159
453.175
453.201
453.237
453.286
453.349
453.427
453.521
453.632
453.759
453.903
454.065
454.243
454.438
454.651
454.881
455.128
455.393
455.675
455.974
456.29
456.623
456.974
457.342
457.726
458.128
458.546
458.98
459.432
459.899
460.383
460.883
461.398
461.929
462.476
463.038
463.614
464.206
464.813
465.434
466.069
466.718
467.382
468.059
468.75
469.454
470.171
470.901
471.644
472.399
473.167
473.946
474.738
475.54
476.353
477.176
478.01
478.852
479.704
480.564
481.432
482.307
483.19
484.08
484.977
485.88
486.79
487.705
488.627
489.554
490.487
491.425
492.369
493.319
494.273
495.233
496.198
497.167
498.142
499.122
500.107
501.096
502.09
503.089
504.092
505.1
506.113
507.13
508.152
509.178
510.208
511.242
512.281
513.324
514.371
515.422
516.478
517.537
518.6
519.667
520.738
521.813
522.891
523.973
525.059
526.149
527.242
528.338
529.438
530.541
531.648
532.758
533.871
534.987
536.106
537.228
538.353
539.48
540.609
541.739
542.871
544.004
545.137
546.271
547.404
548.537
549.669
550.8
551.93
553.058
554.185
555.31
556.434
557.555
558.675
559.793
560.909
562.023
563.135
564.246
565.355
566.462
567.568
568.673
569.776
570.878
571.979
573.078
574.177
575.275
576.373
577.47
578.566
579.663
580.759
581.855
582.951
584.047
585.144
586.24
587.337
588.435
589.533
590.631
591.73
592.829
593.928
595.028
596.128
597.229
598.329
599.43
600.531
601.632
602.733
603.834
604.934
606.035
607.135
608.234
609.334
610.432
611.531
612.628
613.725
614.822
615.917
617.012
618.107
619.2
620.293
621.385
622.475
623.565
624.654
625.741
626.827
627.911
628.992
630.071
631.148
632.221
633.291
634.357
635.418
636.476
637.528
638.576
639.619
640.657
641.69
642.717
643.739
644.755
645.766
646.771
647.77
648.764
649.752
650.734
651.71
652.679
653.643
654.6
655.552
656.496
657.435
658.367
659.293
660.212
661.125
662.032
662.932
663.827
664.715
665.598
666.476
667.353
668.231
669.119
453.161
453.181
453.212
453.256
453.315
453.392
453.486
453.598
453.729
453.879
454.048
454.236
454.443
454.669
454.914
455.178
455.461
455.762
456.082
456.42
456.776
457.15
457.543
457.953
458.381
458.826
459.288
459.767
460.263
460.776
461.305
461.85
462.411
462.988
463.58
464.187
464.809
465.446
466.097
466.763
467.443
468.136
468.843
469.564
470.298
471.045
471.804
472.576
473.361
474.157
474.965
475.785
476.615
477.456
478.306
479.167
480.036
480.913
481.798
482.691
483.59
484.496
485.409
486.327
487.251
488.181
489.116
490.056
491.001
491.951
492.906
493.866
494.831
495.801
496.775
497.753
498.736
499.724
500.716
501.713
502.714
503.719
504.729
505.743
506.761
507.783
508.81
509.84
510.875
511.914
512.957
514.003
515.054
516.108
517.167
518.229
519.295
520.364
521.438
522.514
523.595
524.679
525.767
526.858
527.952
529.05
530.151
531.255
532.363
533.473
534.587
535.704
536.824
537.947
539.072
540.2
541.33
542.462
543.595
544.73
545.865
547.001
548.137
549.272
550.406
551.538
552.669
553.799
554.926
556.051
557.175
558.296
559.414
560.531
561.645
562.757
563.867
564.975
566.081
567.185
568.287
569.388
570.487
571.584
572.681
573.776
574.87
575.963
577.055
578.146
579.237
580.328
581.418
582.509
583.599
584.69
585.78
586.871
587.963
589.055
590.147
591.24
592.333
593.427
594.522
595.616
596.712
597.807
598.903
599.999
601.095
602.192
603.288
604.384
605.48
606.576
607.671
608.766
609.861
610.955
612.048
613.141
614.233
615.324
616.414
617.503
618.592
619.68
620.766
621.852
622.937
624.021
625.103
626.184
627.264
628.342
629.418
630.492
631.563
632.631
633.695
634.756
635.812
636.864
637.911
638.953
639.99
641.022
642.048
643.068
644.083
645.092
646.095
647.093
648.085
649.071
650.051
651.025
651.993
652.956
653.912
654.863
655.807
656.746
657.678
658.605
659.525
660.44
661.348
662.25
663.147
664.037
664.922
665.801
666.675
667.544
668.409
669.272
670.138
671.014
453.162
453.187
453.226
453.28
453.353
453.445
453.558
453.692
453.847
454.024
454.223
454.442
454.683
454.945
455.227
455.53
455.853
456.195
456.558
456.94
457.341
457.762
458.201
458.658
459.133
459.627
460.137
460.665
461.21
461.772
462.35
462.944
463.554
464.18
464.821
465.476
466.147
466.832
467.531
468.244
468.971
469.711
470.465
471.231
472.01
472.802
473.606
474.422
475.25
476.089
476.94
477.801
478.672
479.552
480.442
481.34
482.246
483.158
484.078
485.004
485.935
486.872
487.814
488.76
489.712
490.668
491.628
492.593
493.562
494.535
495.512
496.494
497.479
498.469
499.462
500.46
501.462
502.467
503.477
504.49
505.508
506.529
507.554
508.583
509.616
510.653
511.694
512.738
513.786
514.837
515.893
516.952
518.014
519.081
520.15
521.223
522.3
523.38
524.464
525.551
526.641
527.734
528.831
529.931
531.034
532.14
533.249
534.362
535.477
536.595
537.716
538.84
539.967
541.096
542.227
543.361
544.497
545.634
546.772
547.91
549.049
550.187
551.324
552.459
553.593
554.724
555.853
556.98
558.104
559.225
560.344
561.46
562.573
563.683
564.791
565.897
567
568.101
569.2
570.296
571.391
572.484
573.576
574.666
575.754
576.842
577.929
579.014
580.1
581.184
582.269
583.353
584.437
585.521
586.606
587.69
588.776
589.861
590.948
592.035
593.122
594.21
595.299
596.388
597.478
598.568
599.659
600.75
601.841
602.932
604.024
605.115
606.206
607.297
608.388
609.478
610.567
611.656
612.745
613.832
614.919
616.004
617.089
618.173
619.256
620.337
621.418
622.497
623.576
624.653
625.729
626.803
627.876
628.948
630.017
631.085
632.15
633.213
634.272
635.328
636.379
637.426
638.467
639.504
640.535
641.56
642.579
643.593
644.601
645.602
646.598
647.587
648.571
649.549
650.52
651.486
652.446
653.4
654.348
655.291
656.227
657.158
658.083
659.002
659.916
660.824
661.726
662.622
663.513
664.398
665.278
666.153
667.022
667.886
668.745
669.6
670.451
671.302
672.155
673.019
453.165
453.196
453.243
453.31
453.399
453.51
453.646
453.806
453.991
454.2
454.433
454.689
454.969
455.271
455.596
455.943
456.312
456.702
457.113
457.545
457.996
458.467
458.958
459.467
459.994
460.54
461.104
461.684
462.282
462.897
463.527
464.174
464.836
465.514
466.206
466.914
467.635
468.371
469.12
469.883
470.659
471.448
472.25
473.064
473.891
474.73
475.58
476.442
477.314
478.198
479.092
479.996
480.908
481.83
482.759
483.696
484.638
485.587
486.541
487.499
488.462
489.43
490.401
491.375
492.354
493.336
494.321
495.31
496.302
497.298
498.297
499.3
500.306
501.315
502.328
503.345
504.364
505.388
506.415
507.445
508.479
509.516
510.557
511.601
512.648
513.699
514.754
515.812
516.873
517.938
519.006
520.077
521.151
522.229
523.31
524.395
525.482
526.573
527.666
528.763
529.863
530.966
532.072
533.18
534.292
535.407
536.524
537.645
538.768
539.893
541.022
542.153
543.286
544.422
545.559
546.699
547.84
548.981
550.123
551.265
552.406
553.546
554.683
555.818
556.951
558.08
559.206
560.329
561.448
562.564
563.677
564.787
565.893
566.997
568.097
569.195
570.291
571.384
572.475
573.563
574.65
575.735
576.818
577.9
578.981
580.061
581.14
582.218
583.296
584.374
585.451
586.529
587.606
588.684
589.763
590.842
591.922
593.002
594.083
595.165
596.247
597.331
598.414
599.499
600.584
601.669
602.755
603.841
604.927
606.014
607.1
608.185
609.271
610.356
611.44
612.524
613.607
614.689
615.77
616.851
617.93
619.008
620.084
621.16
622.234
623.307
624.378
625.449
626.518
627.585
628.651
629.716
630.778
631.839
632.898
633.955
635.008
636.058
637.104
638.146
639.183
640.214
641.24
642.259
643.272
644.279
645.28
646.274
647.262
648.243
649.219
650.188
651.15
652.107
653.058
654.003
654.942
655.875
656.803
657.725
658.641
659.552
660.458
661.357
662.252
663.141
664.025
664.904
665.777
666.645
667.509
668.367
669.221
670.07
670.915
671.756
672.594
673.432
674.273
675.124
453.168
453.206
453.265
453.348
453.456
453.592
453.755
453.946
454.165
454.412
454.685
454.984
455.308
455.658
456.032
456.429
456.85
457.293
457.758
458.244
458.75
459.277
459.824
460.389
460.974
461.576
462.196
462.833
463.488
464.158
464.845
465.547
466.264
466.997
467.744
468.505
469.28
470.068
470.87
471.684
472.512
473.352
474.203
475.067
475.943
476.829
477.727
478.636
479.555
480.484
481.422
482.369
483.325
484.287
485.256
486.231
487.211
488.195
489.183
490.174
491.168
492.164
493.164
494.166
495.17
496.178
497.187
498.2
499.215
500.232
501.253
502.276
503.302
504.331
505.362
506.397
507.435
508.476
509.519
510.566
511.616
512.669
513.725
514.784
515.846
516.911
517.979
519.05
520.125
521.202
522.283
523.366
524.452
525.542
526.634
527.729
528.827
529.928
531.032
532.139
533.248
534.36
535.475
536.593
537.713
538.836
539.962
541.09
542.221
543.354
544.489
545.627
546.767
547.909
549.053
550.198
551.344
552.49