/*--------------------------------*- C++ -*----------------------------------*\
  =========                 |
  \\      /  F ield         | OpenFOAM: The Open Source CFD Toolbox
   \\    /   O peration     | Website:  https://openfoam.org
    \\  /    A nd           | Version:  7
     \\/     M anipulation  |
\*---------------------------------------------------------------------------*/
FoamFile
{
    version     2.0;
    format      ascii;
    class       volVectorField;
    location    "5761";
    object      U;
}
// * * * * * * * * * * * * * * * * * * * * * * * * * * * * * * * * * * * * * //

dimensions      [0 1 -1 0 0 0 0];

internalField   nonuniform List<vector> 
27600
(
(0.188362 -1.23826e-13 -0.000132513)
(0.189615 8.41136e-13 -0.000317039)
(0.192001 -1.76644e-12 -0.000500361)
(0.195398 -3.62386e-12 -0.00066889)
(0.19973 2.75434e-13 -0.000818516)
(0.204862 7.33912e-12 -0.000944056)
(0.210647 -1.30231e-11 -0.00104346)
(0.216932 -1.17513e-11 -0.00111636)
(0.223564 -1.58867e-11 -0.00116411)
(0.230404 2.45561e-10 -0.00118917)
(0.237332 -1.8947e-10 -0.00119469)
(0.244242 3.51457e-10 -0.00118411)
(0.251054 8.04745e-11 -0.00116087)
(0.257705 5.88432e-11 -0.00112812)
(0.264148 3.76186e-10 -0.00108866)
(0.270353 9.05496e-11 -0.00104484)
(0.276301 5.84927e-11 -0.00099858)
(0.281983 5.7835e-11 -0.000951367)
(0.287399 6.55778e-11 -0.000904334)
(0.292553 7.94281e-11 -0.0008583)
(0.297452 8.57697e-11 -0.000813829)
(0.302107 1.74006e-10 -0.000771286)
(0.306532 1.48613e-10 -0.00073088)
(0.310738 1.87674e-10 -0.000692704)
(0.314739 1.49057e-10 -0.000656771)
(0.318549 4.66606e-10 -0.000623033)
(0.322181 2.34129e-10 -0.000591404)
(0.325646 1.19445e-10 -0.000561778)
(0.328956 3.07488e-11 -0.000534032)
(0.332121 4.18172e-11 -0.00050804)
(0.335153 1.34823e-10 -0.000483677)
(0.33806 1.2837e-10 -0.000460822)
(0.34085 1.90002e-10 -0.000439357)
(0.343532 1.39319e-10 -0.000419177)
(0.346113 2.12144e-10 -0.00040018)
(0.3486 1.27683e-10 -0.000382274)
(0.350999 7.51338e-11 -0.000365376)
(0.353315 -2.68047e-11 -0.000349408)
(0.355554 8.54043e-12 -0.0003343)
(0.35772 8.16964e-12 -0.000319988)
(0.359819 -3.09051e-10 -0.000306413)
(0.361855 -2.66589e-11 -0.000293523)
(0.36383 1.70695e-12 -0.000281268)
(0.36575 -2.58006e-10 -0.000269602)
(0.367617 -2.20195e-11 -0.000258484)
(0.369434 7.75927e-12 -0.000247875)
(0.371204 -5.05083e-11 -0.000237738)
(0.372931 -5.08315e-12 -0.00022804)
(0.374615 2.65694e-10 -0.000218749)
(0.37626 -1.79232e-10 -0.000209837)
(0.377867 1.6092e-11 -0.000201278)
(0.379439 2.99737e-10 -0.00019305)
(0.380977 -1.41116e-10 -0.000185132)
(0.382484 2.73469e-11 -0.000177508)
(0.38396 -2.9489e-11 -0.000170164)
(0.385406 -2.22818e-10 -0.00016309)
(0.386826 1.45965e-11 -0.000156276)
(0.388219 4.79488e-11 -0.000149715)
(0.389588 5.67284e-11 -0.000143399)
(0.390933 9.01355e-11 -0.000137323)
(0.392255 6.7175e-11 -0.000131482)
(0.393557 6.31837e-11 -0.000125868)
(0.394838 5.70861e-11 -0.000120476)
(0.3961 3.30797e-11 -0.000115301)
(0.397345 3.88814e-11 -0.000110335)
(0.398572 4.42727e-11 -0.000105573)
(0.399783 2.97194e-10 -0.000101007)
(0.400979 -9.41186e-11 -9.66305e-05)
(0.402161 5.60629e-12 -9.24373e-05)
(0.403329 9.94884e-11 -8.84203e-05)
(0.404484 -7.50201e-11 -8.45726e-05)
(0.405627 1.25256e-10 -8.08873e-05)
(0.406759 1.49221e-11 -7.7358e-05)
(0.40788 -1.42725e-10 -7.39781e-05)
(0.408991 2.47179e-10 -7.07412e-05)
(0.410093 1.22076e-10 -6.7641e-05)
(0.411185 -2.33119e-11 -6.46718e-05)
(0.412269 -2.17263e-11 -6.18275e-05)
(0.413345 7.12296e-11 -5.91027e-05)
(0.414414 -9.82134e-12 -5.6492e-05)
(0.415476 -9.37708e-12 -5.39901e-05)
(0.416531 9.84564e-12 -5.15922e-05)
(0.41758 3.66481e-11 -4.92936e-05)
(0.418624 3.89743e-11 -4.70897e-05)
(0.419662 4.6384e-11 -4.49761e-05)
(0.420695 6.70624e-11 -4.29488e-05)
(0.421723 7.37359e-11 -4.10038e-05)
(0.422747 7.41384e-11 -3.91373e-05)
(0.423767 8.60756e-11 -3.73458e-05)
(0.424784 8.5855e-11 -3.56259e-05)
(0.425796 7.87794e-11 -3.39743e-05)
(0.426806 7.29597e-11 -3.23879e-05)
(0.427813 2.1584e-10 -3.08638e-05)
(0.428816 5.21885e-11 -2.93991e-05)
(0.429818 4.92704e-11 -2.7991e-05)
(0.430817 2.1941e-10 -2.66371e-05)
(0.431814 4.22652e-11 -2.53347e-05)
(0.432809 3.5823e-11 -2.40816e-05)
(0.433802 1.78066e-10 -2.28751e-05)
(0.434794 3.89768e-11 -2.17132e-05)
(0.435784 4.41748e-11 -2.05934e-05)
(0.436773 1.03636e-10 -1.95134e-05)
(0.437761 5.54016e-11 -1.84709e-05)
(0.438748 5.21531e-11 -1.74634e-05)
(0.439734 6.52217e-11 -1.64883e-05)
(0.44072 3.00406e-10 -1.55429e-05)
(0.441704 8.58594e-11 -1.4624e-05)
(0.442688 7.6655e-11 -1.37282e-05)
(0.443671 2.92933e-10 -1.2852e-05)
(0.444654 9.97981e-11 -1.19911e-05)
(0.445636 8.04478e-11 -1.1141e-05)
(0.446618 1.74587e-10 -1.02968e-05)
(0.447598 1.03783e-10 -9.45364e-06)
(0.448579 1.63197e-10 -8.60641e-06)
(0.449558 2.98291e-10 -7.75054e-06)
(0.450536 9.25478e-11 -6.88225e-06)
(0.451513 8.1432e-11 -5.99893e-06)
(0.452488 3.37266e-10 -5.09957e-06)
(0.453463 1.42812e-10 -4.18495e-06)
(0.454435 2.66139e-10 -3.25759e-06)
(0.455405 1.69605e-10 -2.32153e-06)
(0.456374 1.1602e-10 -1.38201e-06)
(0.45734 9.20257e-11 -4.4426e-07)
(0.458304 2.09444e-11 4.87367e-07)
(0.459265 7.95391e-11 1.40746e-06)
(0.460224 9.61324e-11 2.3092e-06)
(0.461181 9.60618e-11 3.18619e-06)
(0.462135 1.00718e-10 4.03297e-06)
(0.463086 2.69415e-10 4.84503e-06)
(0.464035 3.10196e-11 5.61881e-06)
(0.464981 6.45716e-11 6.35164e-06)
(0.465925 1.87127e-10 7.04166e-06)
(0.466866 1.01559e-10 7.68771e-06)
(0.467805 9.34288e-11 8.28923e-06)
(0.468741 3.57871e-10 8.84621e-06)
(0.469675 1.24103e-10 9.35903e-06)
(0.470607 1.20179e-10 9.82842e-06)
(0.471537 2.60224e-10 1.02554e-05)
(0.472465 1.31977e-10 1.06413e-05)
(0.473391 1.09412e-10 1.09875e-05)
(0.474315 3.55089e-10 1.12955e-05)
(0.475237 2.52847e-10 1.15671e-05)
(0.476157 1.0498e-10 1.18041e-05)
(0.477076 1.10534e-10 1.20084e-05)
(0.477993 2.91367e-10 1.2182e-05)
(0.478908 6.57345e-11 1.23269e-05)
(0.479823 -1.91331e-11 1.24455e-05)
(0.480735 1.99823e-10 1.25398e-05)
(0.481647 4.42458e-11 1.26122e-05)
(0.482558 5.64308e-11 1.26651e-05)
(0.483467 2.07474e-10 1.2701e-05)
(0.484375 9.74787e-11 1.27223e-05)
(0.485283 1.00345e-10 1.27316e-05)
(0.48619 3.55106e-10 1.27314e-05)
(0.487095 1.86004e-10 1.27242e-05)
(0.488 1.42839e-10 1.27123e-05)
(0.488905 3.86631e-10 1.26982e-05)
(0.489809 1.97133e-10 1.26842e-05)
(0.490712 1.46396e-10 1.26722e-05)
(0.491615 3.1773e-10 1.26643e-05)
(0.492517 1.91995e-10 1.26622e-05)
(0.493418 1.36892e-10 1.26676e-05)
(0.494319 1.71208e-10 1.26817e-05)
(0.49522 1.59983e-10 1.27056e-05)
(0.49612 1.35556e-10 1.27404e-05)
(0.497019 3.48157e-10 1.27865e-05)
(0.497918 1.84966e-10 1.28446e-05)
(0.498816 1.40338e-10 1.29147e-05)
(0.499714 3.33846e-10 1.2997e-05)
(0.500611 1.84423e-10 1.30911e-05)
(0.501508 2.91894e-10 1.31969e-05)
(0.502404 1.59343e-10 1.33138e-05)
(0.503299 1.60485e-10 1.34411e-05)
(0.504194 3.19081e-10 1.35784e-05)
(0.505087 1.33632e-10 1.37247e-05)
(0.505981 1.68939e-10 1.38793e-05)
(0.506873 3.45101e-10 1.40414e-05)
(0.507764 1.36254e-10 1.42103e-05)
(0.508655 1.66588e-10 1.43853e-05)
(0.509545 2.61968e-10 1.45658e-05)
(0.510434 1.34898e-10 1.47515e-05)
(0.511322 1.44471e-10 1.4942e-05)
(0.512209 3.47068e-10 1.51374e-05)
(0.513095 1.55869e-10 1.53379e-05)
(0.513981 1.00905e-10 1.55442e-05)
(0.514865 2.78936e-10 1.57572e-05)
(0.515748 1.41898e-10 1.59784e-05)
(0.51663 9.3409e-11 1.62097e-05)
(0.517511 3.16218e-10 1.64536e-05)
(0.518391 1.12137e-10 1.67129e-05)
(0.519269 8.17798e-11 1.6991e-05)
(0.520146 2.77089e-10 1.72914e-05)
(0.521021 1.65789e-10 1.76177e-05)
(0.521894 1.87018e-10 1.79733e-05)
(0.522765 1.28781e-10 1.83607e-05)
(0.523634 1.45957e-10 1.87815e-05)
(0.524501 1.7582e-10 1.92357e-05)
(0.525365 1.21333e-10 1.97217e-05)
(0.526227 1.2784e-10 2.02362e-05)
(0.527085 1.44155e-10 2.07741e-05)
(0.52794 1.08882e-10 2.13294e-05)
(0.528792 1.11076e-10 2.1895e-05)
(0.52964 1.6325e-10 2.24635e-05)
(0.530485 1.21715e-10 2.30275e-05)
(0.531326 2.46408e-10 2.35799e-05)
(0.532163 1.74007e-10 2.41141e-05)
(0.532997 1.58107e-10 2.46243e-05)
(0.533827 1.09152e-10 2.51053e-05)
(0.534653 1.62304e-10 2.55526e-05)
(0.535475 3.26547e-10 2.59625e-05)
(0.536293 1.20155e-10 2.63317e-05)
(0.537108 1.56474e-10 2.66576e-05)
(0.537919 1.62948e-10 2.6938e-05)
(0.538727 1.12037e-10 2.71711e-05)
(0.53953 1.56871e-10 2.73551e-05)
(0.54033 1.5481e-10 2.74888e-05)
(0.541127 9.99351e-11 2.7571e-05)
(0.54192 1.36219e-10 2.76007e-05)
(0.542709 1.31762e-10 2.7577e-05)
(0.543495 9.64756e-11 2.74992e-05)
(0.544277 1.61306e-10 2.73668e-05)
(0.545056 2.5101e-10 2.71795e-05)
(0.545831 2.99021e-10 2.69371e-05)
(0.546603 9.90144e-11 2.66399e-05)
(0.547371 1.23224e-10 2.62885e-05)
(0.548135 2.94929e-10 2.58837e-05)
(0.548896 7.91451e-11 2.54269e-05)
(0.549653 9.57376e-11 2.492e-05)
(0.550407 2.76973e-10 2.43652e-05)
(0.551156 1.49686e-10 2.37656e-05)
(0.551902 1.05162e-10 2.31243e-05)
(0.552645 2.19798e-10 2.24453e-05)
(0.553383 1.52442e-10 2.17341e-05)
(0.554118 1.01692e-10 2.0994e-05)
(0.554849 2.75878e-10 2.02338e-05)
(0.555576 1.36754e-10 1.94507e-05)
(0.556302 9.1655e-11 1.86672e-05)
(0.557025 2.4436e-10 1.7838e-05)
(0.557753 1.65172e-10 1.70405e-05)
(0.558492 1.0923e-10 1.61255e-05)
(0.188356 -4.03794e-13 -0.000333398)
(0.189607 3.04321e-12 -0.000814512)
(0.192005 -5.17523e-12 -0.00128651)
(0.195425 -1.07438e-11 -0.00172168)
(0.199784 1.15312e-12 -0.00210693)
(0.204945 2.34187e-11 -0.00242995)
(0.210759 -4.44337e-11 -0.00268532)
(0.21707 -3.42808e-11 -0.00287228)
(0.223724 -6.40872e-11 -0.00299435)
(0.230582 1.70904e-10 -0.00305796)
(0.237521 3.63228e-11 -0.00307129)
(0.244437 3.07962e-10 -0.00304327)
(0.25125 1.61758e-10 -0.00298273)
(0.257895 1.34397e-10 -0.00289784)
(0.264329 3.29296e-10 -0.00279578)
(0.270521 1.95481e-10 -0.00268261)
(0.276453 1.56226e-10 -0.00256324)
(0.282117 1.63131e-10 -0.00244152)
(0.287512 1.87094e-10 -0.00232034)
(0.292643 2.3171e-10 -0.00220179)
(0.297519 2.36344e-10 -0.00208731)
(0.302151 4.62735e-10 -0.00197784)
(0.30655 4.08075e-10 -0.0018739)
(0.310732 4.9996e-10 -0.00177573)
(0.314708 3.8266e-10 -0.00168335)
(0.318494 5.8316e-10 -0.00159664)
(0.3221 6.19919e-10 -0.00151538)
(0.325541 3.17578e-10 -0.00143927)
(0.328827 3.63164e-11 -0.00136802)
(0.331969 1.27918e-10 -0.00130128)
(0.334978 4.38537e-10 -0.00123874)
(0.337863 3.63335e-10 -0.00118008)
(0.340631 5.90887e-10 -0.00112501)
(0.343292 3.75917e-10 -0.00107324)
(0.345853 5.4327e-10 -0.00102451)
(0.34832 3.21735e-10 -0.000978593)
(0.350699 2.01511e-10 -0.000935266)
(0.352997 -1.28423e-10 -0.00089433)
(0.355218 2.82712e-11 -0.000855605)
(0.357367 4.67543e-11 -0.000818926)
(0.359449 -1.39853e-10 -0.000784143)
(0.361468 -3.37495e-12 -0.000751118)
(0.363429 3.39432e-11 -0.000719723)
(0.365333 -2.37275e-10 -0.000689842)
(0.367186 -9.28602e-12 -0.000661368)
(0.368989 3.70116e-11 -0.000634199)
(0.370746 -1.92528e-10 -0.000608242)
(0.372459 -2.54309e-11 -0.000583411)
(0.374131 6.09143e-11 -0.000559624)
(0.375764 2.54482e-10 -0.000536809)
(0.37736 9.06769e-11 -0.0005149)
(0.378921 8.53188e-11 -0.000493836)
(0.380449 2.79556e-10 -0.000473569)
(0.381945 1.35804e-10 -0.000454055)
(0.383411 -1.13433e-10 -0.000435259)
(0.384848 1.10109e-10 -0.000417154)
(0.386258 1.16817e-10 -0.000399714)
(0.387643 1.46259e-10 -0.000382922)
(0.389003 1.52194e-10 -0.00036676)
(0.39034 2.87888e-10 -0.000351212)
(0.391654 1.82516e-10 -0.000336263)
(0.392948 1.79223e-10 -0.000321899)
(0.394222 1.64872e-10 -0.000308104)
(0.395477 8.72103e-11 -0.000294863)
(0.396715 1.16301e-10 -0.000282159)
(0.397935 1.02342e-10 -0.000269975)
(0.39914 1.01424e-10 -0.000258295)
(0.40033 2.39868e-10 -0.000247101)
(0.401506 3.24722e-11 -0.000236376)
(0.402668 -3.7931e-12 -0.000226101)
(0.403817 1.36718e-10 -0.00021626)
(0.404955 4.58384e-11 -0.000206836)
(0.406082 -1.57278e-11 -0.00019781)
(0.407198 9.92582e-11 -0.000189166)
(0.408304 2.97942e-11 -0.000180888)
(0.4094 -2.4459e-10 -0.000172961)
(0.410488 -1.02542e-10 -0.000165368)
(0.411568 -7.83056e-11 -0.000158095)
(0.412639 -1.79434e-10 -0.000151128)
(0.413704 -7.2787e-11 -0.000144452)
(0.414761 -2.65853e-11 -0.000138055)
(0.415813 3.26318e-11 -0.000131924)
(0.416858 1.17574e-10 -0.000126046)
(0.417897 1.12892e-10 -0.000120411)
(0.418932 1.32181e-10 -0.000115007)
(0.419961 1.89122e-10 -0.000109823)
(0.420986 2.07596e-10 -0.00010485)
(0.422006 2.07981e-10 -0.000100078)
(0.423023 2.49017e-10 -9.5497e-05)
(0.424036 2.43118e-10 -9.10993e-05)
(0.425045 2.2156e-10 -8.68764e-05)
(0.426052 1.97951e-10 -8.28201e-05)
(0.427055 2.09823e-11 -7.8923e-05)
(0.428056 1.15536e-10 -7.51778e-05)
(0.429054 1.2616e-10 -7.15775e-05)
(0.43005 3.40875e-11 -6.81156e-05)
(0.431044 7.49828e-11 -6.47855e-05)
(0.432036 9.09385e-11 -6.15811e-05)
(0.433027 -9.53326e-11 -5.84963e-05)
(0.434016 7.94021e-11 -5.55252e-05)
(0.435004 1.11248e-10 -5.26619e-05)
(0.43599 -4.34332e-11 -4.99004e-05)
(0.436975 1.09394e-10 -4.72347e-05)
(0.43796 1.44735e-10 -4.46585e-05)
(0.438943 1.69587e-10 -4.21652e-05)
(0.439926 2.29463e-10 -3.97476e-05)
(0.440908 1.86496e-10 -3.7398e-05)
(0.441889 1.96226e-10 -3.51077e-05)
(0.44287 2.66531e-10 -3.28671e-05)
(0.44385 2.26234e-10 -3.06657e-05)
(0.44483 2.02803e-10 -2.8492e-05)
(0.445809 2.57161e-10 -2.63334e-05)
(0.446788 2.25713e-10 -2.41771e-05)
(0.447765 2.59181e-10 -2.20102e-05)
(0.448742 2.53724e-10 -1.98208e-05)
(0.449718 2.14389e-10 -1.75993e-05)
(0.450693 2.06642e-10 -1.53389e-05)
(0.451666 3.01658e-10 -1.30368e-05)
(0.452638 3.33282e-10 -1.06952e-05)
(0.453608 3.67443e-10 -8.32052e-06)
(0.454576 4.41107e-10 -5.92315e-06)
(0.455543 3.17676e-10 -3.51657e-06)
(0.456507 2.57593e-10 -1.11403e-06)
(0.457468 1.68616e-11 1.27322e-06)
(0.458428 2.34952e-10 3.63071e-06)
(0.459384 2.79137e-10 5.94063e-06)
(0.460339 2.73828e-10 8.18672e-06)
(0.46129 2.76113e-10 1.0355e-05)
(0.462239 2.83962e-10 1.24339e-05)
(0.463186 8.23349e-12 1.44144e-05)
(0.46413 1.70022e-10 1.62896e-05)
(0.465071 2.65506e-10 1.8055e-05)
(0.46601 2.36315e-10 1.97074e-05)
(0.466947 2.37639e-10 2.12457e-05)
(0.467881 3.14407e-10 2.26697e-05)
(0.468813 2.82208e-10 2.39805e-05)
(0.469743 3.24444e-10 2.51801e-05)
(0.470671 3.65527e-10 2.62711e-05)
(0.471596 3.08023e-10 2.72568e-05)
(0.47252 2.8431e-10 2.81408e-05)
(0.473442 3.4115e-10 2.89273e-05)
(0.474362 1.24861e-10 2.96206e-05)
(0.47528 2.61103e-10 3.02254e-05)
(0.476196 3.14385e-10 3.07466e-05)
(0.477111 1.01425e-10 3.11892e-05)
(0.478025 1.34322e-10 3.15587e-05)
(0.478937 -1.07131e-10 3.18606e-05)
(0.479848 -1.69359e-11 3.21007e-05)
(0.480757 8.55182e-11 3.22849e-05)
(0.481665 1.41168e-10 3.24194e-05)
(0.482573 2.43956e-10 3.25104e-05)
(0.483479 2.10878e-10 3.25642e-05)
(0.484385 2.25651e-10 3.25875e-05)
(0.485289 3.32781e-10 3.25865e-05)
(0.486193 4.35387e-10 3.25677e-05)
(0.487096 3.73397e-10 3.25372e-05)
(0.487999 4.10001e-10 3.25012e-05)
(0.4889 5.33193e-10 3.24654e-05)
(0.489802 3.90387e-10 3.24351e-05)
(0.490702 4.00868e-10 3.24155e-05)
(0.491602 4.78576e-10 3.24109e-05)
(0.492502 3.66167e-10 3.24254e-05)
(0.493401 3.63034e-10 3.24624e-05)
(0.494299 3.94829e-10 3.25249e-05)
(0.495198 3.57091e-10 3.2615e-05)
(0.496095 3.79606e-10 3.27345e-05)
(0.496992 5.05027e-10 3.28845e-05)
(0.497888 3.64271e-10 3.30654e-05)
(0.498784 3.81546e-10 3.32774e-05)
(0.49968 4.1396e-10 3.352e-05)
(0.500574 4.39198e-10 3.37922e-05)
(0.501468 3.79635e-10 3.40928e-05)
(0.502362 4.64676e-10 3.44204e-05)
(0.503254 3.7944e-10 3.47731e-05)
(0.504146 3.32996e-10 3.5149e-05)
(0.505038 4.91968e-10 3.5546e-05)
(0.505928 3.9357e-10 3.59623e-05)
(0.506818 3.34368e-10 3.63957e-05)
(0.507707 4.21373e-10 3.68448e-05)
(0.508595 3.8537e-10 3.73079e-05)
(0.509482 3.22757e-10 3.77839e-05)
(0.510368 3.67385e-10 3.82723e-05)
(0.511253 3.55982e-10 3.87731e-05)
(0.512138 4.06894e-10 3.92868e-05)
(0.513021 2.54701e-10 3.98152e-05)
(0.513903 2.75137e-10 4.03607e-05)
(0.514785 3.84696e-10 4.0927e-05)
(0.515665 2.31384e-10 4.15192e-05)
(0.516544 2.7211e-10 4.21433e-05)
(0.517422 3.02952e-10 4.28069e-05)
(0.518298 2.03139e-10 4.35185e-05)
(0.519173 2.81797e-10 4.42873e-05)
(0.520046 4.43252e-10 4.51225e-05)
(0.520918 5.56074e-10 4.60327e-05)
(0.521787 3.49286e-10 4.70248e-05)
(0.522655 4.35854e-10 4.81025e-05)
(0.52352 5.33928e-10 4.92662e-05)
(0.524382 3.36045e-10 5.05115e-05)
(0.525242 3.75362e-10 5.18299e-05)
(0.526098 4.30711e-10 5.32086e-05)
(0.526952 2.90243e-10 5.46317e-05)
(0.527802 3.30079e-10 5.6081e-05)
(0.528648 4.8529e-10 5.75375e-05)
(0.529491 3.17897e-10 5.89822e-05)
(0.53033 3.3981e-10 6.03967e-05)
(0.531166 4.75141e-10 6.17643e-05)
(0.531997 4.51101e-10 6.30697e-05)
(0.532825 2.87696e-10 6.42997e-05)
(0.533649 4.79023e-10 6.5443e-05)
(0.53447 3.45083e-10 6.64899e-05)
(0.535286 2.87523e-10 6.74323e-05)
(0.536099 4.82085e-10 6.82635e-05)
(0.536908 4.78642e-10 6.89778e-05)
(0.537714 3.0291e-10 6.95705e-05)
(0.538516 4.73296e-10 7.00375e-05)
(0.539314 3.88703e-10 7.03756e-05)
(0.540109 2.71892e-10 7.05817e-05)
(0.5409 4.29593e-10 7.06532e-05)
(0.541688 3.35168e-10 7.05881e-05)
(0.542472 2.6133e-10 7.03845e-05)
(0.543252 4.62845e-10 7.00413e-05)
(0.544029 3.5692e-10 6.95575e-05)
(0.544802 3.10877e-10 6.89331e-05)
(0.545572 2.28888e-10 6.81686e-05)
(0.546338 3.54524e-10 6.72654e-05)
(0.547101 2.52136e-10 6.6226e-05)
(0.54786 1.72655e-10 6.50538e-05)
(0.548615 2.24473e-10 6.37536e-05)
(0.549367 2.4746e-10 6.23312e-05)
(0.550115 4.10461e-10 6.07944e-05)
(0.550859 2.76715e-10 5.91513e-05)
(0.551599 2.95482e-10 5.74125e-05)
(0.552336 4.14303e-10 5.55908e-05)
(0.553069 2.70678e-10 5.3697e-05)
(0.553798 2.62155e-10 5.17496e-05)
(0.554524 3.90654e-10 4.97502e-05)
(0.555248 2.39092e-10 4.77353e-05)
(0.55597 2.70638e-10 4.56397e-05)
(0.556696 4.86014e-10 4.35625e-05)
(0.557432 3.00717e-10 4.12663e-05)
(0.188362 -1.43534e-12 -0.000528287)
(0.189633 8.87625e-12 -0.00130197)
(0.192065 -1.06607e-11 -0.00205457)
(0.195532 -2.1857e-11 -0.00274973)
(0.199945 3.31874e-12 -0.00336307)
(0.205163 5.6863e-11 -0.0038761)
(0.211034 -1.30321e-10 -0.00428011)
(0.217395 -5.1486e-11 -0.00457429)
(0.22409 -1.3005e-10 -0.00476456)
(0.230979 -9.19629e-11 -0.00486151)
(0.237936 1.46443e-10 -0.00487848)
(0.24486 5.19341e-11 -0.0048299)
(0.251669 1.70909e-10 -0.00472996)
(0.2583 1.3939e-10 -0.00459176)
(0.264711 7.35457e-11 -0.00442676)
(0.270872 2.02073e-10 -0.0042446)
(0.276767 2.24761e-10 -0.00405306)
(0.282389 2.68038e-10 -0.00385818)
(0.287738 3.11966e-10 -0.00366453)
(0.292821 4.31934e-10 -0.00347538)
(0.297645 3.34632e-10 -0.00329297)
(0.302223 5.77253e-10 -0.00311874)
(0.306569 5.71669e-10 -0.00295348)
(0.310696 5.85916e-10 -0.00279754)
(0.314619 4.66891e-10 -0.00265093)
(0.31835 4.41187e-10 -0.00251341)
(0.321903 5.71576e-10 -0.00238463)
(0.325291 3.84191e-10 -0.00226411)
(0.328525 2.01594e-10 -0.00215134)
(0.331617 2.14464e-10 -0.00204578)
(0.334576 4.19011e-10 -0.00194693)
(0.337412 5.46202e-10 -0.00185426)
(0.340133 6.15362e-10 -0.00176729)
(0.342748 4.65768e-10 -0.00168559)
(0.345264 4.40905e-10 -0.00160873)
(0.347688 3.95783e-10 -0.00153633)
(0.350026 3.04688e-10 -0.00146805)
(0.352283 1.25745e-10 -0.00140356)
(0.354465 1.31128e-10 -0.00134258)
(0.356577 1.37691e-10 -0.00128484)
(0.358622 1.0344e-10 -0.00123011)
(0.360607 1.29765e-10 -0.00117815)
(0.362533 1.49391e-10 -0.00112878)
(0.364405 1.17169e-10 -0.0010818)
(0.366226 1.45733e-10 -0.00103705)
(0.367999 1.39524e-10 -0.000994354)
(0.369727 2.68764e-11 -0.000953574)
(0.371413 3.7044e-11 -0.000914569)
(0.373058 -6.17295e-11 -0.00087721)
(0.374665 1.62489e-10 -0.000841383)
(0.376236 6.69071e-11 -0.000806979)
(0.377773 -1.11728e-10 -0.000773908)
(0.379278 2.11182e-10 -0.000742088)
(0.380751 1.77346e-10 -0.000711453)
(0.382196 6.11088e-11 -0.000681947)
(0.383613 1.61959e-10 -0.000653525)
(0.385003 2.0582e-10 -0.000626152)
(0.386369 2.66258e-10 -0.000599797)
(0.38771 1.88734e-10 -0.000574433)
(0.389029 1.44684e-10 -0.000550036)
(0.390327 2.53688e-10 -0.000526583)
(0.391604 3.10882e-10 -0.000504051)
(0.392862 2.92656e-10 -0.000482415)
(0.394102 8.73386e-11 -0.00046165)
(0.395324 2.35857e-10 -0.000441731)
(0.39653 1.73499e-10 -0.000422632)
(0.397721 -6.04224e-11 -0.000404325)
(0.398897 1.18636e-10 -0.000386783)
(0.40006 -4.57925e-11 -0.000369977)
(0.40121 -1.43845e-10 -0.000353881)
(0.402347 4.13054e-11 -0.000338465)
(0.403473 -9.37701e-11 -0.000323703)
(0.404588 -1.19924e-10 -0.000309567)
(0.405693 3.9382e-11 -0.000296031)
(0.406788 -1.63587e-10 -0.00028307)
(0.407874 -1.68566e-10 -0.000270657)
(0.408951 -1.10595e-10 -0.000258769)
(0.410021 -1.03449e-10 -0.000247383)
(0.411083 -1.26806e-10 -0.000236476)
(0.412138 -6.99827e-11 -0.000226026)
(0.413187 -2.02936e-11 -0.000216012)
(0.414229 8.29237e-11 -0.000206415)
(0.415265 2.77908e-10 -0.000197215)
(0.416296 1.8857e-10 -0.000188394)
(0.417322 2.18405e-10 -0.000179935)
(0.418344 3.4998e-10 -0.000171821)
(0.419361 3.33492e-10 -0.000164037)
(0.420373 3.27613e-10 -0.000156568)
(0.421383 4.60512e-10 -0.000149398)
(0.422388 3.97126e-10 -0.000142515)
(0.42339 3.52329e-10 -0.000135905)
(0.42439 3.37608e-10 -0.000129555)
(0.425386 2.4184e-10 -0.000123455)
(0.42638 2.20745e-10 -0.000117593)
(0.427372 2.36449e-10 -0.000111958)
(0.428361 1.68949e-10 -0.000106538)
(0.429349 1.67141e-10 -0.000101326)
(0.430335 1.92313e-10 -9.63097e-05)
(0.431319 1.41797e-10 -9.14808e-05)
(0.432302 2.28396e-10 -8.68298e-05)
(0.433284 2.25331e-10 -8.23474e-05)
(0.434264 1.77405e-10 -7.80244e-05)
(0.435244 2.48439e-10 -7.38512e-05)
(0.436222 2.53721e-10 -6.98181e-05)
(0.4372 2.75626e-10 -6.59146e-05)
(0.438177 2.72698e-10 -6.21296e-05)
(0.439154 2.62993e-10 -5.84507e-05)
(0.44013 3.10806e-10 -5.48644e-05)
(0.441105 3.1891e-10 -5.13557e-05)
(0.44208 3.2781e-10 -4.79079e-05)
(0.443055 2.99441e-10 -4.45026e-05)
(0.444029 2.97561e-10 -4.11201e-05)
(0.445002 3.06788e-10 -3.77398e-05)
(0.445975 2.98631e-10 -3.43412e-05)
(0.446946 2.85275e-10 -3.09056e-05)
(0.447917 3.09765e-10 -2.74171e-05)
(0.448887 3.11803e-10 -2.38652e-05)
(0.449856 3.97213e-10 -2.02457e-05)
(0.450823 5.58514e-10 -1.65618e-05)
(0.451788 4.28069e-10 -1.28243e-05)
(0.452751 3.10175e-10 -9.04997e-06)
(0.453713 4.3388e-10 -5.2603e-06)
(0.454672 4.29589e-10 -1.47565e-06)
(0.455629 3.54437e-10 2.28548e-06)
(0.456583 5.15973e-10 5.99776e-06)
(0.457535 4.92348e-10 9.63214e-06)
(0.458484 4.52977e-10 1.31631e-05)
(0.459431 4.50861e-10 1.65687e-05)
(0.460375 4.02578e-10 1.98311e-05)
(0.461317 3.08779e-10 2.29363e-05)
(0.462256 3.52549e-10 2.58738e-05)
(0.463193 3.58059e-10 2.86366e-05)
(0.464127 3.47971e-10 3.12203e-05)
(0.465059 3.71825e-10 3.36234e-05)
(0.465988 3.74959e-10 3.58459e-05)
(0.466915 4.23704e-10 3.78899e-05)
(0.46784 5.74819e-10 3.97588e-05)
(0.468763 4.69291e-10 4.14569e-05)
(0.469684 4.69005e-10 4.29896e-05)
(0.470603 4.41147e-10 4.43628e-05)
(0.47152 4.7232e-10 4.55831e-05)
(0.472435 3.92144e-10 4.66575e-05)
(0.473349 4.56577e-10 4.75934e-05)
(0.47426 2.3847e-10 4.83986e-05)
(0.475171 2.46551e-10 4.90813e-05)
(0.476079 2.69769e-10 4.96498e-05)
(0.476987 1.82227e-10 5.0113e-05)
(0.477893 1.51515e-10 5.04799e-05)
(0.478798 2.22782e-10 5.07601e-05)
(0.479702 2.44696e-10 5.0963e-05)
(0.480604 3.03056e-10 5.10987e-05)
(0.481506 2.95459e-10 5.11772e-05)
(0.482407 2.60772e-10 5.12086e-05)
(0.483307 3.79506e-10 5.1203e-05)
(0.484207 4.6222e-10 5.11705e-05)
(0.485105 5.42385e-10 5.11209e-05)
(0.486003 4.82981e-10 5.10636e-05)
(0.486901 4.98321e-10 5.10076e-05)
(0.487798 5.18926e-10 5.09614e-05)
(0.488694 5.12869e-10 5.09328e-05)
(0.48959 5.18309e-10 5.09289e-05)
(0.490485 5.21588e-10 5.09558e-05)
(0.49138 4.73948e-10 5.10189e-05)
(0.492274 4.74077e-10 5.11225e-05)
(0.493168 4.94745e-10 5.12702e-05)
(0.494061 4.71492e-10 5.14645e-05)
(0.494954 4.81147e-10 5.1707e-05)
(0.495846 5.02945e-10 5.19985e-05)
(0.496738 4.6879e-10 5.23388e-05)
(0.497629 4.87773e-10 5.27272e-05)
(0.498519 5.15136e-10 5.31622e-05)
(0.499409 5.60361e-10 5.36416e-05)
(0.500298 4.82846e-10 5.41631e-05)
(0.501187 4.68123e-10 5.47237e-05)
(0.502075 4.88727e-10 5.53204e-05)
(0.502962 4.46779e-10 5.59498e-05)
(0.503848 4.50855e-10 5.66089e-05)
(0.504734 4.97094e-10 5.72946e-05)
(0.505619 4.39887e-10 5.80041e-05)
(0.506503 4.25621e-10 5.87351e-05)
(0.507386 4.84338e-10 5.94858e-05)
(0.508268 4.05541e-10 6.02553e-05)
(0.509149 3.97256e-10 6.10436e-05)
(0.510029 2.61134e-10 6.18517e-05)
(0.510909 3.08856e-10 6.26823e-05)
(0.511787 3.32093e-10 6.35392e-05)
(0.512664 2.02315e-10 6.44284e-05)
(0.513541 2.65463e-10 6.53578e-05)
(0.514416 3.09012e-10 6.63372e-05)
(0.515289 2.16228e-10 6.73785e-05)
(0.516162 2.56753e-10 6.84954e-05)
(0.517033 3.2039e-10 6.97025e-05)
(0.517902 2.62022e-10 7.10147e-05)
(0.51877 5.47689e-10 7.24457e-05)
(0.519635 4.52213e-10 7.40064e-05)
(0.520499 2.6916e-10 7.57031e-05)
(0.52136 4.83188e-10 7.75359e-05)
(0.522218 4.19071e-10 7.94982e-05)
(0.523074 2.48753e-10 8.15756e-05)
(0.523926 4.6979e-10 8.37476e-05)
(0.524776 4.00152e-10 8.59885e-05)
(0.525622 1.89859e-10 8.82691e-05)
(0.526464 4.50378e-10 9.05589e-05)
(0.527303 4.2887e-10 9.28273e-05)
(0.528138 3.74718e-10 9.50454e-05)
(0.528969 4.60779e-10 9.71864e-05)
(0.529797 2.96593e-10 9.92267e-05)
(0.530621 3.38555e-10 0.000101145)
(0.531441 4.72642e-10 0.000102925)
(0.532257 3.65257e-10 0.00010455)
(0.53307 4.10401e-10 0.000106009)
(0.533879 5.17319e-10 0.000107291)
(0.534684 3.17208e-10 0.000108387)
(0.535485 3.37177e-10 0.000109292)
(0.536283 4.79441e-10 0.000109998)
(0.537078 2.53782e-10 0.0001105)
(0.537868 3.35286e-10 0.000110795)
(0.538655 4.59964e-10 0.000110878)
(0.539439 2.42493e-10 0.000110747)
(0.540219 3.31865e-10 0.000110398)
(0.540995 3.89059e-10 0.000109831)
(0.541768 3.65506e-10 0.000109044)
(0.542538 3.51345e-10 0.000108038)
(0.543303 2.8686e-10 0.000106813)
(0.544066 1.87079e-10 0.000105371)
(0.544824 2.47538e-10 0.000103718)
(0.545579 2.13442e-10 0.000101858)
(0.546331 9.91508e-11 9.97993e-05)
(0.547078 2.34869e-10 9.75512e-05)
(0.547823 3.18136e-10 9.51259e-05)
(0.548563 3.9379e-10 9.25366e-05)
(0.549299 3.32777e-10 8.97998e-05)
(0.550032 3.39906e-10 8.69352e-05)
(0.550761 3.87016e-10 8.39615e-05)
(0.551487 3.11604e-10 8.09032e-05)
(0.552209 3.10609e-10 7.77735e-05)
(0.552928 2.82129e-10 7.46031e-05)
(0.553647 3.30352e-10 7.13516e-05)
(0.554369 5.33635e-10 6.8049e-05)
(0.555102 4.25229e-10 6.44916e-05)
(0.188365 -5.83525e-12 -0.000745518)
(0.189665 2.23528e-11 -0.00183811)
(0.19215 -2.3713e-11 -0.00289799)
(0.195689 -4.28345e-11 -0.0038764)
(0.200187 4.72569e-12 -0.00473687)
(0.205494 1.16643e-10 -0.00545384)
(0.211451 5.92762e-11 -0.00601529)
(0.217888 -1.01792e-11 -0.00642075)
(0.224646 -3.89759e-12 -0.00667927)
(0.23158 8.56518e-12 -0.00680641)
(0.238565 8.29849e-11 -0.0068215)
(0.245498 1.06406e-10 -0.00674523)
(0.252298 3.05686e-10 -0.00659781)
(0.258906 1.43902e-10 -0.00639778)
(0.265279 1.35804e-10 -0.00616124)
(0.271391 2.72462e-10 -0.00590169)
(0.277228 3.06654e-10 -0.00562993)
(0.282784 3.98133e-10 -0.00535436)
(0.288061 4.37736e-10 -0.00508125)
(0.293067 3.36528e-10 -0.00481507)
(0.297812 3.29384e-10 -0.00455886)
(0.302308 4.14057e-10 -0.00431454)
(0.306572 3.90716e-10 -0.00408315)
(0.310615 4.49955e-10 -0.00386509)
(0.314454 4.9818e-10 -0.00366032)
(0.318103 3.15583e-10 -0.00346848)
(0.321574 4.32029e-10 -0.003289)
(0.324882 3.79314e-10 -0.00312121)
(0.328037 1.74741e-10 -0.00296436)
(0.331052 2.65899e-10 -0.00281768)
(0.333935 3.63493e-10 -0.00268043)
(0.336698 3.65384e-10 -0.00255187)
(0.339348 4.15122e-10 -0.00243132)
(0.341894 5.00648e-10 -0.00231815)
(0.344343 4.17165e-10 -0.00221177)
(0.346702 4.80249e-10 -0.00211162)
(0.348977 3.73245e-10 -0.00201724)
(0.351173 1.80401e-10 -0.00192815)
(0.353297 2.09638e-10 -0.00184396)
(0.355352 2.31166e-10 -0.00176429)
(0.357343 3.08594e-10 -0.0016888)
(0.359275 2.61904e-10 -0.00161718)
(0.361151 2.78717e-10 -0.00154915)
(0.362974 3.55117e-10 -0.00148444)
(0.364748 2.91529e-10 -0.00142282)
(0.366476 2.54949e-10 -0.00136406)
(0.368161 6.74198e-11 -0.00130795)
(0.369804 1.14097e-10 -0.00125429)
(0.371409 7.81329e-11 -0.00120292)
(0.372977 1.22538e-10 -0.00115365)
(0.374511 -1.65463e-11 -0.00110635)
(0.376012 -2.18852e-11 -0.00106089)
(0.377482 6.14134e-11 -0.00101715)
(0.378923 5.42593e-11 -0.000975043)
(0.380336 2.93483e-11 -0.00093449)
(0.381722 6.81239e-11 -0.000895431)
(0.383083 2.82453e-11 -0.000857817)
(0.384419 2.61333e-11 -0.000821607)
(0.385733 9.87017e-11 -0.000786764)
(0.387026 -3.84001e-11 -0.000753256)
(0.388297 3.9659e-12 -0.000721051)
(0.38955 1.36866e-10 -0.000690118)
(0.390784 4.11252e-11 -0.000660422)
(0.392001 -1.09263e-10 -0.000631929)
(0.393201 8.93716e-11 -0.000604604)
(0.394385 -2.91706e-12 -0.00057841)
(0.395555 -6.78708e-11 -0.000553308)
(0.396711 -3.44936e-11 -0.00052926)
(0.397854 -1.59698e-10 -0.000506228)
(0.398985 -1.71773e-10 -0.000484171)
(0.400104 -8.93765e-11 -0.000463051)
(0.401212 -1.35707e-10 -0.000442831)
(0.40231 -2.50569e-10 -0.000423471)
(0.403398 -1.28508e-10 -0.000404936)
(0.404476 -1.61242e-10 -0.000387189)
(0.405547 -1.84324e-10 -0.000370196)
(0.406609 -6.8093e-11 -0.000353923)
(0.407664 -1.17469e-10 -0.000338338)
(0.408711 -1.39999e-10 -0.000323409)
(0.409752 -6.22633e-11 -0.000309107)
(0.410787 -8.06962e-12 -0.000295403)
(0.411816 1.43673e-10 -0.000282269)
(0.412839 1.97954e-10 -0.000269679)
(0.413858 1.95767e-10 -0.000257609)
(0.414871 2.80661e-10 -0.000246033)
(0.41588 3.40067e-10 -0.000234931)
(0.416885 4.42932e-10 -0.000224279)
(0.417887 3.94344e-10 -0.000214058)
(0.418884 4.27805e-10 -0.000204247)
(0.419879 5.24313e-10 -0.000194828)
(0.42087 4.43176e-10 -0.000185783)
(0.421859 4.57857e-10 -0.000177094)
(0.422845 3.28645e-10 -0.000168747)
(0.423829 2.94301e-10 -0.000160724)
(0.424811 3.40183e-10 -0.000153012)
(0.42579 2.54583e-10 -0.000145596)
(0.426768 2.42228e-10 -0.000138462)
(0.427745 3.30716e-10 -0.000131598)
(0.42872 2.52771e-10 -0.000124989)
(0.429693 4.25258e-10 -0.000118623)
(0.430666 3.3769e-10 -0.000112488)
(0.431638 2.7934e-10 -0.000106572)
(0.432608 3.96803e-10 -0.00010086)
(0.433578 3.56285e-10 -9.53391e-05)
(0.434548 4.02345e-10 -8.99958e-05)
(0.435516 3.23738e-10 -8.48144e-05)
(0.436484 3.27807e-10 -7.97778e-05)
(0.437452 4.76445e-10 -7.48676e-05)
(0.438419 3.92243e-10 -7.00628e-05)
(0.439386 4.38424e-10 -6.53403e-05)
(0.440353 3.86907e-10 -6.06744e-05)
(0.441319 3.47224e-10 -5.60378e-05)