/*--------------------------------*- C++ -*----------------------------------*\
  =========                 |
  \\      /  F ield         | OpenFOAM: The Open Source CFD Toolbox
   \\    /   O peration     | Website:  https://openfoam.org
    \\  /    A nd           | Version:  dev
     \\/     M anipulation  |
\*---------------------------------------------------------------------------*/
FoamFile
{
    version     2.0;
    format      ascii;
    class       volScalarField;
    location    "0.13";
    object      p;
}
// * * * * * * * * * * * * * * * * * * * * * * * * * * * * * * * * * * * * * //

dimensions      [1 -1 -2 0 0 0 0];

internalField   nonuniform List<scalar> 
1350
(
101328.66025
101328.442073
101328.33258
101328.251481
101328.171812
101328.661035
101328.442001
101328.332461
101328.251479
101328.171846
101328.66225
101328.440826
101328.33208
101328.251334
101328.171782
101328.664387
101328.438987
101328.33162
101328.251149
101328.171698
101328.667495
101328.436649
101328.331106
101328.25094
101328.171607
101328.671649
101328.433986
101328.330567
101328.250725
101328.171521
101328.677069
101328.431271
101328.330049
101328.250527
101328.171448
101328.684261
101328.428901
101328.329593
101328.250351
101328.171386
101328.693594
101328.427306
101328.329221
101328.250183
101328.171319
101328.702851
101328.426624
101328.329005
101328.250046
101328.171255
101328.096668
101328.024398
101327.953765
101327.884253
101327.815668
101328.096695
101328.024419
101327.953782
101327.884266
101327.81567
101328.096659
101328.024398
101327.953768
101327.884258
101327.815652
101328.096618
101328.024373
101327.953753
101327.884248
101327.815631
101328.096578
101328.02435
101327.953739
101327.88424
101327.815611
101328.096544
101328.02433
101327.953728
101327.884233
101327.815595
101328.096516
101328.024314
101327.953718
101327.884228
101327.815584
101328.096489
101328.024297
101327.953707
101327.884221
101327.815576
101328.096454
101328.024273
101327.953692
101327.884211
101327.815569
101328.096418
101328.024249
101327.953675
101327.884199
101327.815562
101327.77021
101327.747372
101327.724834
101327.702272
101327.679713
101327.65719
101327.634701
101327.612242
101327.589809
101327.5674
101327.545012
101327.522643
101327.500291
101327.477954
101327.45563
101327.433319
101327.411018
101327.388726
101327.366443
101327.344167
101327.321898
101327.299635
101327.277377
101327.255124
101327.232875
101327.21063
101327.188388
101327.166149
101327.143913
101327.121679
101327.099447
101327.077217
101327.054989
101327.032762
101327.010536
101326.988312
101326.966088
101326.943866
101326.921644
101326.899423
101326.877203
101326.854983
101326.832764
101326.810546
101326.788327
101326.76611
101326.743892
101326.721675
101326.699458
101326.677241
101326.655025
101326.632808
101326.610592
101326.588376
101326.56616
101326.543945
101326.521729
101326.499514
101326.477298
101326.455083
101326.432868
101326.410652
101326.388437
101326.366222
101326.344007
101326.321792
101326.299577
101326.277362
101326.255147
101326.232932
101326.210718
101326.188503
101326.166288
101326.144073
101326.121858
101326.099644
101326.077429
101326.055214
101326.032999
101326.010785
101325.98857
101325.966355
101325.94414
101325.921926
101325.899711
101325.877496
101325.855281
101325.833066
101325.810852
101325.788637
101325.766422
101325.744207
101325.721992
101325.699778
101325.677563
101325.655348
101325.633133
101325.610918
101325.588703
101325.566488
101325.544273
101325.522058
101325.499843
101325.477628
101325.455413
101325.433198
101325.410983
101325.388768
101325.366553
101325.344337
101325.322122
101325.299907
101325.277692
101325.255477
101325.233261
101325.211046
101325.188831
101325.166615
101325.1444
101325.122185
101325.099969
101325.077754
101325.055538
101325.033323
101325.011107
101327.770215
101327.747402
101327.724845
101327.70228
101327.679721
101327.657197
101327.634707
101327.612247
101327.589814
101327.567404
101327.545016
101327.522646
101327.500294
101327.477957
101327.455633
101327.433321
101327.41102
101327.388728
101327.366445
101327.344169
101327.3219
101327.299636
101327.277378
101327.255125
101327.232876
101327.210631
101327.188389
101327.16615
101327.143913
101327.121679
101327.099447
101327.077217
101327.054989
101327.032762
101327.010536
101326.988312
101326.966088
101326.943866
101326.921644
101326.899423
101326.877203
101326.854983
101326.832764
101326.810546
101326.788327
101326.76611
101326.743892
101326.721675
101326.699458
101326.677241
101326.655025
101326.632808
101326.610592
101326.588376
101326.56616
101326.543945
101326.521729
101326.499514
101326.477298
101326.455083
101326.432868
101326.410652
101326.388437
101326.366222
101326.344007
101326.321792
101326.299577
101326.277362
101326.255147
101326.232932
101326.210718
101326.188503
101326.166288
101326.144073
101326.121858
101326.099644
101326.077429
101326.055214
101326.032999
101326.010785
101325.98857
101325.966355
101325.94414
101325.921926
101325.899711
101325.877496
101325.855281
101325.833066
101325.810852
101325.788637
101325.766422
101325.744207
101325.721992
101325.699778
101325.677563
101325.655348
101325.633133
101325.610918
101325.588703
101325.566488
101325.544273
101325.522058
101325.499843
101325.477628
101325.455413
101325.433198
101325.410983
101325.388768
101325.366553
101325.344337
101325.322122
101325.299907
101325.277692
101325.255477
101325.233261
101325.211046
101325.188831
101325.166615
101325.1444
101325.122185
101325.099969
101325.077754
101325.055538
101325.033323
101325.011107
101327.770209
101327.747428
101327.724848
101327.702277
101327.679718
101327.657194
101327.634705
101327.612245
101327.589811
101327.567402
101327.545014
101327.522645
101327.500293
101327.477955
101327.455632
101327.43332
101327.411019
101327.388727
101327.366444
101327.344168
101327.321899
101327.299636
101327.277378
101327.255125
101327.232876
101327.210631
101327.188389
101327.16615
101327.143913
101327.121679
101327.099447
101327.077217
101327.054989
101327.032762
101327.010536
101326.988312
101326.966088
101326.943866
101326.921644
101326.899423
101326.877203
101326.854983
101326.832764
101326.810546
101326.788327
101326.76611
101326.743892
101326.721675
101326.699458
101326.677241
101326.655025
101326.632808
101326.610592
101326.588376
101326.56616
101326.543945
101326.521729
101326.499514
101326.477298
101326.455083
101326.432868
101326.410652
101326.388437
101326.366222
101326.344007
101326.321792
101326.299577
101326.277362
101326.255147
101326.232932
101326.210718
101326.188503
101326.166288
101326.144073
101326.121858
101326.099644
101326.077429
101326.055214
101326.032999
101326.010785
101325.98857
101325.966355
101325.94414
101325.921926
101325.899711
101325.877496
101325.855281
101325.833066
101325.810852
101325.788637
101325.766422
101325.744207
101325.721992
101325.699778
101325.677563
101325.655348
101325.633133
101325.610918
101325.588703
101325.566488
101325.544273
101325.522058
101325.499843
101325.477628
101325.455413
101325.433198
101325.410983
101325.388768
101325.366553
101325.344337
101325.322122
101325.299907
101325.277692
101325.255477
101325.233261
101325.211046
101325.188831
101325.166615
101325.1444
101325.122185
101325.099969
101325.077754
101325.055538
101325.033323
101325.011107
101327.770202
101327.747459
101327.724855
101327.702275
101327.679716
101327.657192
101327.634703
101327.612243
101327.58981
101327.5674
101327.545013
101327.522644
101327.500292
101327.477955
101327.455631
101327.433319
101327.411018
101327.388727
101327.366444
101327.344168
101327.321899
101327.299636
101327.277378
101327.255125
101327.232876
101327.21063
101327.188388
101327.16615
101327.143913
101327.121679
101327.099447
101327.077217
101327.054989
101327.032762
101327.010536
101326.988312
101326.966088
101326.943866
101326.921644
101326.899423
101326.877203
101326.854984
101326.832764
101326.810546
101326.788328
101326.76611
101326.743892
101326.721675
101326.699458
101326.677241
101326.655025
101326.632808
101326.610592
101326.588376
101326.56616
101326.543945
101326.521729
101326.499514
101326.477298
101326.455083
101326.432868
101326.410652
101326.388437
101326.366222
101326.344007
101326.321792
101326.299577
101326.277362
101326.255147
101326.232932
101326.210718
101326.188503
101326.166288
101326.144073
101326.121858
101326.099644
101326.077429
101326.055214
101326.032999
101326.010785
101325.98857
101325.966355
101325.94414
101325.921926
101325.899711
101325.877496
101325.855281
101325.833066
101325.810852
101325.788637
101325.766422
101325.744207
101325.721992
101325.699778
101325.677563
101325.655348
101325.633133
101325.610918
101325.588703
101325.566488
101325.544273
101325.522058
101325.499843
101325.477628
101325.455413
101325.433198
101325.410983
101325.388768
101325.366553
101325.344337
101325.322122
101325.299907
101325.277692
101325.255477
101325.233261
101325.211046
101325.188831
101325.166615
101325.1444
101325.122185
101325.099969
101325.077754
101325.055538
101325.033323
101325.011107
101327.770197
101327.747488
101327.724863
101327.702273
101327.679714
101327.65719
101327.634701
101327.612241
101327.589808
101327.567399
101327.545012
101327.522643
101327.500291
101327.477954
101327.45563
101327.433319
101327.411018
101327.388726
101327.366443
101327.344168
101327.321899
101327.299635
101327.277378
101327.255125
101327.232876
101327.21063
101327.188388
101327.16615
101327.143913
101327.121679
101327.099447
101327.077217
101327.054989
101327.032762
101327.010536
101326.988312
101326.966089
101326.943866
101326.921644
101326.899423
101326.877203
101326.854984
101326.832764
101326.810546
101326.788328
101326.76611
101326.743892
101326.721675
101326.699458
101326.677241
101326.655025
101326.632808
101326.610592
101326.588376
101326.566161
101326.543945
101326.521729
101326.499514
101326.477298
101326.455083
101326.432868
101326.410653
101326.388437
101326.366222
101326.344007
101326.321792
101326.299577
101326.277362
101326.255147
101326.232932
101326.210718
101326.188503
101326.166288
101326.144073
101326.121858
101326.099644
101326.077429
101326.055214
101326.032999
101326.010785
101325.98857
101325.966355
101325.94414
101325.921926
101325.899711
101325.877496
101325.855281
101325.833066
101325.810852
101325.788637
101325.766422
101325.744207
101325.721992
101325.699778
101325.677563
101325.655348
101325.633133
101325.610918
101325.588703
101325.566488
101325.544273
101325.522058
101325.499843
101325.477628
101325.455413
101325.433198
101325.410983
101325.388768
101325.366553
101325.344337
101325.322122
101325.299907
101325.277692
101325.255477
101325.233261
101325.211046
101325.188831
101325.166615
101325.1444
101325.122185
101325.099969
101325.077754
101325.055538
101325.033323
101325.011107
101327.770191
101327.747511
101327.72487
101327.702272
101327.679712
101327.657189
101327.6347
101327.61224
101327.589807
101327.567398
101327.545011
101327.522642
101327.50029
101327.477954
101327.45563
101327.433319
101327.411018
101327.388726
101327.366443
101327.344167
101327.321898
101327.299635
101327.277378
101327.255124
101327.232876
101327.21063
101327.188388
101327.16615
101327.143913
101327.121679
101327.099447
101327.077217
101327.054989
101327.032762
101327.010536
101326.988312
101326.966089
101326.943866
101326.921644
101326.899424
101326.877203
101326.854984
101326.832765
101326.810546
101326.788328
101326.76611
101326.743892
101326.721675
101326.699458
101326.677241
101326.655025
101326.632809
101326.610592
101326.588376
101326.566161
101326.543945
101326.521729
101326.499514
101326.477298
101326.455083
101326.432868
101326.410653
101326.388437
101326.366222
101326.344007
101326.321792
101326.299577
101326.277362
101326.255147
101326.232933
101326.210718
101326.188503
101326.166288
101326.144073
101326.121858
101326.099644
101326.077429
101326.055214
101326.032999
101326.010785
101325.98857
101325.966355
101325.94414
101325.921926
101325.899711
101325.877496
101325.855281
101325.833066
101325.810852
101325.788637
101325.766422
101325.744207
101325.721992
101325.699778
101325.677563
101325.655348
101325.633133
101325.610918
101325.588703
101325.566488
101325.544273
101325.522058
101325.499843
101325.477628
101325.455413
101325.433198
101325.410983
101325.388768
101325.366553
101325.344337
101325.322122
101325.299907
101325.277692
101325.255477
101325.233261
101325.211046
101325.188831
101325.166615
101325.1444
101325.122185
101325.099969
101325.077754
101325.055538
101325.033323
101325.011107
101327.770186
101327.747524
101327.724874
101327.702271
101327.679711
101327.657188
101327.634699
101327.612239
101327.589806
101327.567398
101327.54501
101327.522642
101327.50029
101327.477953
101327.45563
101327.433318
101327.411017
101327.388726
101327.366443
101327.344167
101327.321898
101327.299635
101327.277378
101327.255124
101327.232876
101327.21063
101327.188388
101327.16615
101327.143913
101327.121679
101327.099447
101327.077217
101327.054989
101327.032762
101327.010536
101326.988312
101326.966089
101326.943866
101326.921644
101326.899424
101326.877203
101326.854984
101326.832765
101326.810546
101326.788328
101326.76611
101326.743892
101326.721675
101326.699458
101326.677241
101326.655025
101326.632809
101326.610592
101326.588376
101326.566161
101326.543945
101326.521729
101326.499514
101326.477298
101326.455083
101326.432868
101326.410653
101326.388437
101326.366222
101326.344007
101326.321792
101326.299577
101326.277362
101326.255147
101326.232933
101326.210718
101326.188503
101326.166288
101326.144073
101326.121858
101326.099644
101326.077429
101326.055214
101326.032999
101326.010785
101325.98857
101325.966355
101325.94414
101325.921926
101325.899711
101325.877496
101325.855281
101325.833066
101325.810852
101325.788637
101325.766422
101325.744207
101325.721992
101325.699778
101325.677563
101325.655348
101325.633133
101325.610918
101325.588703
101325.566488
101325.544273
101325.522058
101325.499843
101325.477628
101325.455413
101325.433198
101325.410983
101325.388768
101325.366553
101325.344337
101325.322122
101325.299907
101325.277692
101325.255477
101325.233261
101325.211046
101325.188831
101325.166615
101325.1444
101325.122185
101325.099969
101325.077754
101325.055538
101325.033323
101325.011107
101327.770181
101327.747526
101327.724874
101327.702269
101327.679709
101327.657186
101327.634697
101327.612238
101327.589805
101327.567396
101327.545009
101327.522641
101327.500289
101327.477952
101327.455629
101327.433318
101327.411017
101327.388726
101327.366443
101327.344167
101327.321898
101327.299635
101327.277377
101327.255124
101327.232875
101327.21063
101327.188388
101327.166149
101327.143913
101327.121679
101327.099447
101327.077217
101327.054989
101327.032762
101327.010536
101326.988312
101326.966089
101326.943866
101326.921644
101326.899424
101326.877203
101326.854984
101326.832765
101326.810546
101326.788328
101326.76611
101326.743892
101326.721675
101326.699458
101326.677241
101326.655025
101326.632809
101326.610592
101326.588376
101326.566161
101326.543945
101326.521729
101326.499514
101326.477298
101326.455083
101326.432868
101326.410653
101326.388437
101326.366222
101326.344007
101326.321792
101326.299577
101326.277362
101326.255147
101326.232933
101326.210718
101326.188503
101326.166288
101326.144073
101326.121858
101326.099644
101326.077429
101326.055214
101326.032999
101326.010785
101325.98857
101325.966355
101325.94414
101325.921926
101325.899711
101325.877496
101325.855281
101325.833066
101325.810852
101325.788637
101325.766422
101325.744207
101325.721992
101325.699778
101325.677563
101325.655348
101325.633133
101325.610918
101325.588703
101325.566488
101325.544273
101325.522058
101325.499843
101325.477628
101325.455413
101325.433198
101325.410983
101325.388768
101325.366553
101325.344337
101325.322122
101325.299907
101325.277692
101325.255477
101325.233261
101325.211046
101325.188831
101325.166615
101325.1444
101325.122185
101325.099969
101325.077754
101325.055538
101325.033323
101325.011107
101327.770174
101327.74752
101327.72487
101327.702265
101327.679705
101327.657183
101327.634694
101327.612235
101327.589802
101327.567394
101327.545007
101327.522639
101327.500287
101327.477951
101327.455628
101327.433317
101327.411016
101327.388725
101327.366442
101327.344166
101327.321897
101327.299635
101327.277377
101327.255124
101327.232875
101327.21063
101327.188388
101327.166149
101327.143913
101327.121679
101327.099447
101327.077217
101327.054989
101327.032762
101327.010536
101326.988312
101326.966089
101326.943866
101326.921644
101326.899424
101326.877203
101326.854984
101326.832765
101326.810546
101326.788328
101326.76611
101326.743892
101326.721675
101326.699458
101326.677241
101326.655025
101326.632809
101326.610592
101326.588376
101326.566161
101326.543945
101326.521729
101326.499514
101326.477298
101326.455083
101326.432868
101326.410653
101326.388437
101326.366222
101326.344007
101326.321792
101326.299577
101326.277362
101326.255147
101326.232933
101326.210718
101326.188503
101326.166288
101326.144073
101326.121858
101326.099644
101326.077429
101326.055214
101326.032999
101326.010785
101325.98857
101325.966355
101325.94414
101325.921926
101325.899711
101325.877496
101325.855281
101325.833066
101325.810852
101325.788637
101325.766422
101325.744207
101325.721992
101325.699778
101325.677563
101325.655348
101325.633133
101325.610918
101325.588703
101325.566488
101325.544273
101325.522058
101325.499843
101325.477628
101325.455413
101325.433198
101325.410983
101325.388768
101325.366553
101325.344337
101325.322122
101325.299907
101325.277692
101325.255477
101325.233261
101325.211046
101325.188831
101325.166615
101325.1444
101325.122185
101325.099969
101325.077754
101325.055538
101325.033323
101325.011107
101327.770167
101327.747513
101327.724864
101327.70226
101327.6797
101327.657178
101327.63469
101327.612231
101327.589799
101327.567391
101327.545005
101327.522637
101327.500285
101327.477949
101327.455626
101327.433315
101327.411015
101327.388724
101327.366441
101327.344165
101327.321897
101327.299634
101327.277376
101327.255123
101327.232875
101327.210629
101327.188388
101327.166149
101327.143913
101327.121679
101327.099447
101327.077217
101327.054989
101327.032762
101327.010536
101326.988312
101326.966088
101326.943866
101326.921644
101326.899423
101326.877203
101326.854984
101326.832765
101326.810546
101326.788328
101326.76611
101326.743892
101326.721675
101326.699458
101326.677241
101326.655025
101326.632809
101326.610592
101326.588376
101326.566161
101326.543945
101326.521729
101326.499514
101326.477298
101326.455083
101326.432868
101326.410653
101326.388437
101326.366222
101326.344007
101326.321792
101326.299577
101326.277362
101326.255147
101326.232933
101326.210718
101326.188503
101326.166288
101326.144073
101326.121858
101326.099644
101326.077429
101326.055214
101326.032999
101326.010785
101325.98857
101325.966355
101325.94414
101325.921926
101325.899711
101325.877496
101325.855281
101325.833066
101325.810852
101325.788637
101325.766422
101325.744207
101325.721992
101325.699778
101325.677563
101325.655348
101325.633133
101325.610918
101325.588703
101325.566488
101325.544273
101325.522058
101325.499843
101325.477628
101325.455413
101325.433198
101325.410983
101325.388768
101325.366553
101325.344337
101325.322122
101325.299907
101325.277692
101325.255477
101325.233261
101325.211046
101325.188831
101325.166615
101325.1444
101325.122185
101325.099969
101325.077754
101325.055538
101325.033323
101325.011107
)
;

boundaryField
{
    inlet
    {
        type            zeroGradient;
    }
    wall01
    {
        type            zeroGradient;
    }
    axis
    {
        type            empty;
    }
    outlet
    {
        type            fixedValue;
        value           uniform 101325;
    }
    front
    {
        type            wedge;
    }
    back
    {
        type            wedge;
    }
}


// ************************************************************************* //
