/*--------------------------------*- C++ -*----------------------------------*\
  =========                 |
  \\      /  F ield         | OpenFOAM: The Open Source CFD Toolbox
   \\    /   O peration     | Website:  https://openfoam.org
    \\  /    A nd           | Version:  dev
     \\/     M anipulation  |
\*---------------------------------------------------------------------------*/
FoamFile
{
    version     2.0;
    format      ascii;
    class       volScalarField;
    location    "0.13";
    object      rho;
}
// * * * * * * * * * * * * * * * * * * * * * * * * * * * * * * * * * * * * * //

dimensions      [1 -3 0 0 0 0 0];

internalField   nonuniform List<scalar> 
1350
(
0.294383602766
0.294223491741
0.294223495259
0.294262389822
0.294319053527
0.294389051564
0.294233972463
0.29423703009
0.294278321509
0.294336361212
0.294401198162
0.294257233863
0.29426705555
0.294313510081
0.294374282305
0.294420736007
0.294294302156
0.29431386444
0.294367637247
0.294431604462
0.294449361678
0.294347074824
0.294379237839
0.294441215635
0.294507538856
0.294489788597
0.294417665925
0.294465807437
0.294534312276
0.294600491508
0.294546301399
0.294510932648
0.294575147837
0.294645703738
0.294707290351
0.294626039863
0.294632915919
0.294707420303
0.294771988747
0.29482289845
0.294742232139
0.294789899094
0.294859628194
0.294907059719
0.294940930794
0.294923674684
0.294986705422
0.295024127531
0.295043077135
0.295055317817
0.294384802595
0.294451880132
0.294516733846
0.294577568701
0.294633146644
0.294402543604
0.294469314661
0.294533357493
0.294593083885
0.294647402451
0.294441117282
0.294506976235
0.294569080677
0.294626293456
0.294677831834
0.294498556797
0.294562364128
0.294621107811
0.294674308496
0.29472160112
0.294573006327
0.29463291082
0.294686507427
0.294734084261
0.294775722991
0.294661636606
0.294715139754
0.294761582868
0.29480194707
0.29483674622
0.29476030095
0.294804652698
0.294842036031
0.294873904619
0.294901006567
0.294863755158
0.294896551313
0.294923477315
0.294946092022
0.294965087198
0.294966472289
0.294986223933
0.295002113506
0.295015307464
0.295026250524
0.295063974515
0.295070380567
0.295075398021
0.295079500789
0.295082826233
0.294651645014
0.294669173515
0.294686129926
0.294702497926
0.294718293629
0.294733529821
0.294748214787
0.29476235829
0.294775962471
0.294789049326
0.294801636205
0.29481374654
0.294825395775
0.294836587525
0.294847336607
0.294857670583
0.294867590092
0.294877122501
0.294886280259
0.294895083209
0.294903535744
0.294911658302
0.29491945464
0.294926947448
0.294934155563
0.294941063815
0.29494767735
0.294954040444
0.294960161253
0.294966041536
0.294971687745
0.294977109687
0.294982316325
0.294987316465
0.294992118061
0.294996728277
0.295001155207
0.295005405028
0.295009482424
0.29501339717
0.295017156145
0.295020753124
0.295024208875
0.29502755875
0.295030736087
0.295033733761
0.295036623445
0.295039411505
0.295042082954
0.295044635303
0.295047073849
0.295049402655
0.295051624339
0.295053742786
0.295055762129
0.295057681978
0.295059508005
0.295061246661
0.295062887405
0.295064443924
0.29506595027
0.295067337792
0.295068646888
0.29506988447
0.295071040331
0.295072121238
0.295073137169
0.29507409347
0.295074990306
0.29507581418
0.29507657831
0.295077290491
0.295077939393
0.295078541895
0.295079090494
0.295079591849
0.295080046374
0.295080458967
0.295080830302
0.29508116335
0.295081460175
0.295081722702
0.29508195335
0.295082154297
0.295082327594
0.2950824749
0.295082598909
0.295082701505
0.29508278433
0.295082849214
0.295082897898
0.295082931897
0.295082952676
0.295082961652
0.295082960067
0.295082949169
0.295082930001
0.295082903623
0.295082870863
0.295082832626
0.295082789636
0.295082742579
0.295082692052
0.295082638591
0.295082582654
0.295082524638
0.295082464893
0.295082403747
0.295082341465
0.295082278259
0.295082214324
0.295082149828
0.295082084897
0.29508201964
0.295081954151
0.295081888506
0.295081822761
0.29508175696
0.295081691141
0.295081625331
0.29508155955
0.295081493814
0.29508142813
0.295081362509
0.295081296985
0.294665466366
0.294682560777
0.294699078986
0.294715013119
0.294730379418
0.294745190388
0.294759456404
0.29477318748
0.294786390358
0.294799086767
0.294811297011
0.294823041176
0.294834334167
0.294845177694
0.294855596392
0.294865606825
0.294875217285
0.294884453596
0.294893325608
0.294901851228
0.294910036547
0.294917903309
0.294925452662
0.294932710065
0.294939690224
0.29494636709
0.294952778795
0.29495894465
0.294964871721
0.294970564166
0.294976030935
0.294981280778
0.294986322204
0.294991163703
0.294995812997
0.295000276887
0.295004563215
0.295008677782
0.295012625567
0.295016415478
0.295020054397
0.295023536794
0.295026884665
0.295030129283
0.295033186241
0.295036091946
0.295038895988
0.295041595804
0.295044178342
0.295046646686
0.295049004936
0.295051256749
0.295053404698
0.295055452479
0.295057403949
0.295059258956
0.295061023096
0.295062701918
0.29506428562
0.2950657894
0.295067243396
0.295068579667
0.295069842244
0.295071035343
0.295072147976
0.295073188979
0.295074167514
0.295075087639
0.295075950203
0.295076741672
0.295077475798
0.295078158816
0.295078781067
0.295079358731
0.295079884127
0.295080364068
0.295080798167
0.295081191646
0.29508154588
0.295081863049
0.295082145098
0.295082394099
0.29508261245
0.295082802314
0.295082965277
0.29508310355
0.295083219296
0.295083314431
0.295083390571
0.295083449602
0.295083493009
0.295083522348
0.29508353909
0.295083544469
0.295083539791
0.295083526178
0.295083504713
0.295083476305
0.29508344188
0.295083402195
0.295083358003
0.295083309942
0.295083258583
0.29508320444
0.295083147946
0.295083089482
0.295083029386
0.295082967969
0.295082905478
0.295082842116
0.295082778073
0.295082713503
0.295082648526
0.295082583246
0.295082517753
0.295082452117
0.295082386389
0.295082320614
0.295082254825
0.295082189049
0.295082123303
0.295082057602
0.295081991953
0.295081926366
0.295081860874
0.294694940588
0.294711084956
0.294726650554
0.294741646686
0.294756083304
0.294769977219
0.29478334245
0.294796188344
0.294808533415
0.294820398259
0.294831802728
0.294842764885
0.29485329416
0.294863404093
0.294873113856
0.294882440316
0.294891396737
0.294900001922
0.29490826263
0.294916200765
0.294923820026
0.294931143055
0.294938169644
0.294944929499
0.294951405591
0.294957623761
0.294963599513
0.294969339954
0.294974854351
0.294980150761
0.294985237545
0.294990122636
0.294994813854
0.294999319085
0.295003645518
0.295007799221
0.295011787421
0.295015615392
0.295019288284
0.295022813613
0.295026198474
0.295029438178
0.295032558693
0.295035561325
0.295038385273
0.295041101698
0.295043717412
0.295046223047
0.295048620073
0.295050911072
0.295053099437
0.295055188321
0.295057180224
0.295059078446
0.295060886365
0.29506260425
0.295064237443
0.295065789818
0.295067253445
0.295068647115
0.295069987237
0.295071216644
0.295072383791
0.295073478168
0.295074502458
0.295075459692
0.29507635874
0.295077202985
0.29507799345
0.295078716959
0.295079388429
0.295080009326
0.295080576028
0.295081102076
0.295081578992
0.295082013127
0.295082405304
0.295082759508
0.295083077307
0.295083361211
0.29508361266
0.295083833604
0.295084026385
0.295084192854
0.2950843349
0.295084454299
0.29508455283
0.295084632625
0.295084694993
0.29508474184
0.295084774414
0.295084794216
0.295084802559
0.295084800621
0.295084789554
0.295084770441
0.295084744199
0.295084711747
0.295084673843
0.295084631249
0.295084584611
0.295084534511
0.295084481472
0.295084425948
0.295084368335
0.295084308975
0.295084248179
0.295084186223
0.295084123318
0.295084059655
0.295083995402
0.29508393069
0.295083865628
0.295083800312
0.295083734818
0.295083669205
0.295083603521
0.295083537803
0.29508347208
0.295083406376
0.295083340705
0.295083275078
0.295083209504
0.295083143987
0.295083078563
0.294737266567
0.294751984887
0.294766143902
0.294779751756
0.294792819069
0.294805370748
0.294817421058
0.29482898875
0.294840096549
0.294850761507
0.294861003088
0.294870837554
0.294880274955
0.294889334333
0.294898033114
0.294906387284
0.29491440448
0.294922105676
0.294929495881
0.294936595702
0.294943411266
0.294949956368
0.294956245046
0.294962271513
0.294968065197
0.29497363091
0.29497897463
0.29498410666
0.29498903593
0.294993770277
0.294998317358
0.29500268424
0.295006877886
0.295010905403
0.295014773089
0.295018486106
0.295022050524
0.295025471682
0.295028753467
0.295031903723
0.295034927557
0.295037823549
0.295040616788
0.295043258102
0.295045792828
0.295048230154
0.295050563502
0.295052796447
0.295054931641
0.295056971653
0.295058919374
0.295060777498
0.295062548384
0.295064234816
0.295065839661
0.295067363603
0.295068811508
0.295070185332
0.295071480925
0.295072719614
0.295073893497
0.295074975917
0.295076005761
0.295076967159
0.295077865176
0.295078704541
0.295079492439
0.295080229672
0.295080919124
0.295081547713
0.295082131632
0.295082665958
0.295083156256
0.29508360962
0.295084019359
0.295084390131
0.295084724075
0.29508502441
0.295085291985
0.295085529711
0.295085739128
0.295085921622
0.295086079339
0.295086213989
0.295086327278
0.295086420746
0.295086496096
0.295086554991
0.295086598795
0.295086629109
0.295086647074
0.295086654038
0.295086651123
0.295086639361
0.295086619783
0.295086593294
0.295086560748
0.295086522885
0.295086480427
0.295086433991
0.295086384138
0.295086331375
0.295086276142
0.295086218827
0.295086159772
0.295086099268
0.295086037587
0.295085974946
0.295085911528
0.2950858475
0.295085782994
0.29508571812
0.295085652973
0.29508558763
0.295085522152
0.295085456587
0.295085390974
0.295085325345
0.295085259723
0.295085194123
0.295085128559
0.29508506304
0.295084997569
0.295084932153
0.295084866822
0.294789504668
0.294802376454
0.29481472058
0.294826549112
0.294837875429
0.294848729525
0.294859136281
0.294869112004
0.29487867835
0.294887852141
0.294896652989
0.294905091948
0.294913190519
0.29492096304
0.294928419376
0.294935576946
0.29494244328
0.294949036407
0.294955363662
0.294961436126
0.294967273673
0.294972864038
0.29497823858
0.294983401779
0.294988359405
0.294993120348
0.294997692067
0.295002082541
0.295006299343
0.295010349414
0.295014239409
0.295017975373
0.295021563266
0.295025009279
0.295028318455
0.295031494976
0.295034543261
0.295037469667
0.295040274483
0.295042971047
0.295045550868
0.295048034743
0.295050388402
0.29505265377
0.295054827995
0.295056908234
0.295058897945
0.295060800435
0.29506261836
0.295064354101
0.295066010075
0.295067588557
0.29506909165
0.295070521604
0.295071880811
0.295073170263
0.295074394201
0.295075552912
0.295076647747
0.295077696981
0.295078666477
0.295079578974
0.295080441732
0.295081243852
0.295081991208
0.295082689471
0.295083344224
0.295083954914
0.295084522693
0.295085039079
0.295085517501
0.295085952497
0.295086351906
0.295086718527
0.295087048983
0.295087345809
0.29508761171
0.295087848513
0.295088057841
0.29508824198
0.295088402384
0.295088540453
0.295088657685
0.295088755681
0.295088835887
0.295088899676
0.295088948456
0.295088983591
0.295089006321
0.2950890179
0.295089019408
0.295089011888
0.295088996338
0.295088973599
0.295088944524
0.295088909878
0.29508887034
0.295088826558
0.2950887791
0.29508872847
0.295088675134
0.295088619492
0.295088561902
0.295088502687
0.295088442112
0.295088380422
0.295088317822
0.295088254487
0.295088190564
0.295088126182
0.295088061442
0.295087996436
0.295087931233
0.295087865893
0.295087800462
0.295087734978
0.295087669469
0.295087603959
0.295087538464
0.295087472996
0.295087407564
0.295087342174
0.295087276829
0.295087211532
0.29508714631
0.294848261978
0.294858940302
0.294869147143
0.29487889223
0.294888206444
0.294897115663
0.294905643157
0.294913804203
0.294921621879
0.29492910673
0.294936280422
0.294943160009
0.294949757457
0.294956084057
0.294962150361
0.294967969862
0.294973552939
0.294978908362
0.294984054111
0.294988980668
0.294993717306
0.294998265481
0.295002631996
0.295006826067
0.29501085372
0.295014721651
0.295018436244
0.295022003808
0.295025430438
0.295028721832
0.295031883411
0.295034920063
0.295037836632
0.295040638246
0.295043328501
0.295045910218
0.295048386909
0.295050764241
0.295053041757
0.295055238775
0.295057318465
0.295059318034
0.295061241697
0.295063082466
0.295064844035
0.295066528366
0.295068138094
0.295069675829
0.29507114382
0.295072544066
0.295073878511
0.295075149009
0.295076357313
0.295077505178
0.295078594556
0.295079626712
0.295080605106
0.295081529067
0.295082405299
0.29508323331
0.295083997383
0.295084723406
0.295085399589
0.295086029386
0.295086614497
0.295087160198
0.295087670641
0.295088145317
0.295088582066
0.295088978552
0.295089343254
0.295089673248
0.295089975539
0.295090250031
0.2950904962
0.295090714966
0.295090908811
0.29509107916
0.295091227785
0.295091356337
0.295091465706
0.295091557409
0.295091632853
0.295091693109
0.295091739369
0.295091772768
0.295091794452
0.295091805476
0.295091806898
0.295091799616
0.295091784601
0.295091762657
0.295091734518
0.295091700919
0.295091662488
0.295091619841
0.295091573511
0.295091523989
0.29509147171
0.295091417069
0.295091360416
0.295091302058
0.295091242277
0.295091181305
0.295091119352
0.295091056594
0.295090993185
0.295090929255
0.295090864915
0.295090800256
0.295090735355
0.295090670275
0.295090605068
0.295090539776
0.295090474431
0.29509040906
0.295090343683
0.295090278316
0.295090212969
0.29509014765
0.295090082364
0.295090017115
0.295089951905
0.295089886736
0.295089821631
0.294909995392
0.294918245488
0.294926104901
0.294933595939
0.294940743367
0.294947569044
0.294954092787
0.294960324678
0.294966287125
0.294971993489
0.294977461279
0.294982701505
0.294987723696
0.294992536087
0.294997149526
0.295001570584
0.295005816895
0.295009880792
0.295013786146
0.295017535241
0.295021134428
0.295024590756
0.295027909817
0.295031097875
0.295034160049
0.295037101361
0.295039926662
0.295042640696
0.295045248056
0.295047753056
0.295050159762
0.295052471846
0.295054692979
0.295056827053
0.29505887625
0.295060841403
0.295062727584
0.295064532153
0.295066271158
0.29506791867
0.295069506687
0.295071032479
0.295072492856
0.295073889534
0.29507522472
0.295076500128
0.295077717754
0.295078879503
0.295079987101
0.295081042068
0.295082045887
0.295082999966
0.295083905674
0.295084764297
0.295085577443
0.295086346705
0.295087074421
0.295087760263
0.295088410253
0.29508900982
0.295089575364
0.295090105421
0.295090597221
0.295091052294
0.295091474686
0.295091867351
0.295092231895
0.295092569672
0.295092877489
0.295093154798
0.295093406193
0.295093633708
0.295093839605
0.295094023891
0.295094186947
0.295094329673
0.295094453473
0.295094559959
0.295094649916
0.295094724903
0.29509478557
0.295094833309
0.295094868968
0.295094893616
0.295094907854
0.295094912739
0.295094909173
0.295094897802
0.295094879496
0.295094854928
0.295094824803
0.295094789726
0.295094750239
0.295094706872
0.295094660091
0.295094610346
0.295094558024
0.295094503476
0.295094447013
0.295094388918
0.295094329442
0.295094268807
0.295094207204
0.2950941448
0.295094081739
0.295094018145
0.295093954124
0.295093889764
0.295093825142
0.295093760318
0.295093695345
0.295093630265
0.295093565112
0.295093499914
0.295093434691
0.295093369461
0.295093304235
0.295093239025
0.295093173835
0.295093108671
0.295093043535
0.295092978428
0.295092913353
0.29509284831
0.295092783317
0.294971408847
0.2949771418
0.294982596838
0.294987788662
0.29499273688
0.294997455797
0.29500196055
0.295006257546
0.295010366716
0.295014299611
0.295018065909
0.295021674351
0.295025131307
0.295028441231
0.295031614707
0.295034650306
0.295037565692
0.295040364371
0.295043050701
0.295045630221
0.295048107349
0.295050486909
0.295052773023
0.295054969762
0.295057080731
0.295059109336
0.295061058883
0.295062932597
0.295064733592
0.295066464773
0.295068128845
0.295069728268
0.29507126553
0.295072743142
0.295074162017
0.295075521421
0.295076827535
0.295078066199
0.295079254588
0.295080402952
0.295081502149
0.295082554261
0.295083560397
0.29508452163
0.295085439232
0.295086314443
0.295087148634
0.295087943072
0.29508869894
0.295089417256
0.295090099058
0.2950907453
0.295091356973
0.295091934924
0.295092480585
0.295092995848
0.295093481695
0.295093938654
0.295094359884
0.295094753811
0.295095126212
0.295095467971
0.295095783294
0.295096073051
0.295096341138
0.29509658849
0.295096815094
0.295097023145
0.295097210641
0.295097376091
0.295097523679
0.295097654837
0.295097771204
0.295097872686
0.295097959508
0.29509803249
0.295098092511
0.295098140851
0.295098177753
0.295098204768
0.295098221877
0.295098230538
0.29509823102
0.295098224096
0.29509821031
0.295098190373
0.295098164784
0.295098134107
0.295098098882
0.295098059575
0.295098016647
0.295097970512
0.295097921535
0.295097870067
0.29509781641
0.295097760872
0.295097703698
0.295097645118
0.295097585339
0.295097524541
0.295097462888
0.29509740052
0.295097337559
0.295097274111
0.295097210268
0.295097146106
0.295097081692
0.29509701708
0.295096952318
0.295096887442
0.295096822485
0.295096757472
0.295096692422
0.295096627353
0.295096562276
0.295096497201
0.295096432136
0.295096367084
0.29509630205
0.295096237036
0.295096172043
0.295096107071
0.295096042121
0.295095977194
0.295095912304
0.295029907308
0.295033179246
0.295036296501
0.295039260532
0.295042084979
0.295044777007
0.295047339137
0.295049783106
0.295052120558
0.29505435751
0.29505649983
0.295058552671
0.295060518941
0.295062400118
0.295064197877
0.295065923729
0.295067582868
0.295069176086
0.295070706366
0.295072177204
0.29507359114
0.295074950877
0.295076258822
0.295077517184
0.295078727946
0.295079892967
0.295081014074
0.295082093048
0.295083131593
0.295084131262
0.295085093466
0.295086019515
0.29508691069
0.295087768169
0.295088591951
0.295089381995
0.295090123412
0.295090836808
0.295091530415
0.295092194586
0.295092829614
0.29509343631
0.295094015331
0.295094567227
0.295095092654
0.295095592325
0.295096067021
0.295096517438
0.295096944235
0.295097347956
0.295097729209
0.295098088516
0.295098426499
0.29509874363
0.295099041289
0.295099321625
0.295099584405
0.295099822035
0.295100041965
0.295100248064
0.295100438224
0.295100609616
0.295100763994
0.295100904159
0.295101031841
0.295101146699
0.295101249277
0.295101340993
0.295101420143
0.295101484911
0.295101540963
0.295101587075
0.295101624109
0.295101652674
0.295101672801
0.29510168498
0.295101689446
0.295101687515
0.295101678812
0.295101664608
0.295101644798
0.295101620293
0.295101591114
0.295101557803
0.295101520647
0.295101480106
0.295101436427
0.29510138995
0.295101340968
0.295101289759
0.29510123657
0.295101181643
0.295101125183
0.295101067379
0.295101008404
0.295100948424
0.295100887572
0.295100825976
0.295100763749
0.295100700989
0.295100637782
0.295100574205
0.295100510324
0.295100446194
0.295100381864
0.295100317373
0.295100252758
0.295100188045
0.29510012326
0.295100058421
0.295099993546
0.295099928645
0.295099863731
0.29509979881
0.295099733888
0.295099668971
0.295099604061
0.295099539161
0.295099474272
0.295099409396
0.295099344532
0.295099279681
0.295099214842
0.295099150017
0.295099085214
0.295083913512
0.29508489349
0.295085828715
0.295086716602
0.295087562951
0.295088366259
0.295089126779
0.29508985224
0.295090547125
0.295091213042
0.2950918521
0.295092465867
0.295093054794
0.295093612934
0.295094147612
0.295094664902
0.295095164058
0.295095645643
0.295096110393
0.295096559557
0.295096993903
0.295097414261
0.295097821332
0.295098215671
0.295098597731
0.295098967929
0.295099326711
0.295099674515
0.295100011747
0.295100338711
0.295100655638
0.295100962734
0.295101260164
0.295101547961
0.295101825749
0.295102084813
0.29510232103
0.295102558839
0.295102790365
0.295103011229
0.295103221455
0.29510342104
0.295103610007
0.295103788366
0.295103956232
0.295104113799
0.295104261314
0.295104398961
0.295104526915
0.295104645289
0.295104754274
0.295104853996
0.295104944721
0.295105026596
0.295105100915
0.295105170437
0.295105228331
0.29510527525
0.295105315038
0.295105351629
0.295105379965
0.295105400066
0.295105412154
0.295105419537
0.295105422452
0.295105420588
0.295105414342
0.295105404441
0.29510538862
0.29510536651
0.295105342448
0.295105314825
0.29510528379
0.295105249824
0.295105212834
0.295105172996
0.295105130516
0.295105085874
0.295105038826
0.295104990087
0.295104939396
0.2951048873
0.295104833615
0.295104778646
0.295104722412
0.295104665097
0.295104606795
0.295104547616
0.295104487648
0.295104426992
0.29510436573
0.295104303939
0.295104241678
0.29510417901
0.295104115989
0.295104052666
0.295103989082
0.295103925276
0.295103861282
0.295103797131
0.295103732849
0.295103668459
0.295103603982
0.295103539432
0.295103474825
0.295103410173
0.295103345485
0.29510328077
0.295103216035
0.295103151286
0.295103086526
0.295103021761
0.295102956992
0.295102892222
0.295102827452
0.295102762684
0.295102697919
0.295102633157
0.295102568399
0.295102503645
0.295102438895
0.295102374148
0.295102309406
0.295102244667
0.295102179936
)
;

boundaryField
{
    inlet
    {
        type            calculated;
        value           nonuniform List<scalar> 10(0.295080086836 0.29508008912 0.29508009266 0.295080098882 0.295080107932 0.295080120029 0.295080135813 0.295080156759 0.295080183935 0.295080210895);
    }
    wall01
    {
        type            calculated;
        value           nonuniform List<scalar> 
135
(
0.295098226123
0.295104725508
0.29510706784
0.295107944642
0.295108328874
0.295108502004
0.295108513475
0.295108445928
0.295108346405
0.295108209939
0.295108105801
0.295108059073
0.295108010763
0.295107961531
0.295107914384
0.295107866954
0.295107817737
0.295107770281
0.295107726403
0.295107685941
0.295107649251
0.295107616368
0.295107586601
0.295107553289
0.295107521751
0.295107496444
0.295107475655
0.295107458925
0.295107446055
0.295107437345
0.295107432712
0.295107432163
0.295107435631
0.295107442949
0.295107453889
0.295107468212
0.295107485734
0.295107506291
0.295107529706
0.295107555734
0.295107584079
0.295107614425
0.295107646479
0.295107679832
0.295107713704
0.295107739065
0.295107751378
0.295107774567
0.295107800431
0.295107824276
0.295107845813
0.295107864738
0.295107880787
0.295107893693
0.295107903312
0.295107909587
0.295107912527
0.295107912089
0.295107908238
0.295107900882
0.295107890022
0.295107875599
0.295107857701
0.295107836309
0.295107812549
0.29510778902
0.295107758746
0.295107722241
0.295107683194
0.295107645389
0.295107603633
0.295107557813
0.295107508009
0.295107457387
0.295107406045
0.295107353531
0.295107300105
0.295107246356
0.295107189883
0.295107130181
0.295107071441
0.295107011914
0.295106951608
0.295106890867
0.295106829457
0.295106767418
0.295106704821
0.295106642008
0.295106578607
0.295106515201
0.295106451407
0.295106387649
0.295106323627
0.295106259533
0.295106195279
0.295106130947
0.295106066536
0.295106002064
0.295105937533
0.295105872967
0.295105808374
0.295105743761
0.295105679127
0.295105614479
0.295105549818
0.295105485149
0.295105420471
0.295105355787
0.295105291098
0.295105226406
0.295105161711
0.295105097015
0.295105032319
0.295104967621
0.295104902922
0.295104838224
0.295104773524
0.295104708825
0.295104644125
0.295104579425
0.295104514725
0.295104450025
0.295104385324
0.295104320624
0.295104255924
0.295104191223
0.295104126523
0.295104061822
0.295103997122
0.295103932421
0.295103867721
0.29510380302
0.295103738319
0.295103673619
0.295103608917
)
;
    }
    axis
    {
        type            empty;
    }
    outlet
    {
        type            calculated;
        value           nonuniform List<scalar> 10(0.295081267287 0.295081831175 0.295083048864 0.295084837122 0.29508711661 0.295089791931 0.295092753617 0.295095882603 0.295099055512 0.295102150234);
    }
    front
    {
        type            wedge;
    }
    back
    {
        type            wedge;
    }
}


// ************************************************************************* //
