/*--------------------------------*- C++ -*----------------------------------*\
  =========                 |
  \\      /  F ield         | OpenFOAM: The Open Source CFD Toolbox
   \\    /   O peration     | Website:  https://openfoam.org
    \\  /    A nd           | Version:  dev
     \\/     M anipulation  |
\*---------------------------------------------------------------------------*/
FoamFile
{
    version     2.0;
    format      ascii;
    class       volScalarField;
    location    "0.13";
    object      T;
}
// * * * * * * * * * * * * * * * * * * * * * * * * * * * * * * * * * * * * * //

dimensions      [0 0 0 1 0 0 0];

internalField   nonuniform List<scalar> 
1350
(
1175.84824349
1176.51313484
1176.52430869
1176.37233555
1176.14734923
1175.82654151
1176.47138209
1176.47019919
1176.30864357
1176.0781445
1175.77807174
1176.37862332
1176.3501645
1176.16797766
1175.92653534
1175.70010413
1176.23072543
1176.16309201
1175.95165012
1175.69742589
1175.58588319
1176.02018344
1175.90184401
1175.65765388
1175.39405222
1175.42460356
1175.73857262
1175.55599427
1175.28579158
1175.02289363
1175.19921397
1175.36648712
1175.11939829
1174.84111541
1174.59676021
1174.88132459
1174.87984098
1174.59158591
1174.33740706
1174.13589773
1174.41838058
1174.25380421
1173.98480448
1173.7992332
1173.66584852
1173.69606546
1173.46975991
1173.32990776
1173.25795422
1173.21077473
1175.88529391
1175.61720059
1175.35774572
1175.11432542
1174.89188611
1175.81436703
1175.54753
1175.29135094
1175.05239102
1174.8350064
1175.66018182
1175.39706019
1175.1487014
1174.9198477
1174.71361558
1175.43066797
1175.17584908
1174.94102049
1174.72827514
1174.5390605
1175.13333235
1174.89423713
1174.68008375
1174.48988036
1174.32332127
1174.77957956
1174.56619422
1174.38071221
1174.21938691
1174.08017843
1174.38607816
1174.20934677
1174.06010343
1173.93273862
1173.82426931
1173.97382955
1173.84326869
1173.73577762
1173.64534525
1173.5692083
1173.56488544
1173.48632955
1173.42283474
1173.36994815
1173.32587856
1173.1770288
1173.15159832
1173.13137847
1173.11466984
1173.10090604
1174.8175877
1174.74744093
1174.67957779
1174.61408663
1174.55088956
1174.48992857
1174.43117292
1174.37457937
1174.32013966
1174.26777254
1174.2174061
1174.16895723
1174.12236086
1174.07758505
1174.03456828
1173.99323621
1173.95353913
1173.91540612
1173.87877821
1173.84359673
1173.80981073
1173.77736679
1173.74621559
1173.71630539
1173.68758774
1173.66002471
1173.63357113
1173.60817808
1173.5838031
1173.56040753
1173.53795381
1173.51640543
1173.49572718
1173.47588518
1173.45684689
1173.4385811
1173.42105786
1173.40424849
1173.38812539
1173.37266224
1173.35783398
1173.3436167
1173.32998693
1173.31692269
1173.30440549
1173.29241545
1173.2809321
1173.26993691
1173.25941298
1173.24934421
1173.23971517
1173.23051122
1173.22171843
1173.2133235
1173.20531383
1173.19767735
1173.19040249
1173.18347828
1173.17689408
1173.17063951
1173.16470463
1173.15908035
1173.15375718
1173.14872595
1173.14397769
1173.1395035
1173.13529451
1173.13134188
1173.12763693
1173.124171
1173.12093535
1173.1179212
1173.11511975
1173.11252214
1173.11011951
1173.10790294
1173.10586352
1173.10399231
1173.10228042
1173.10071899
1173.09929924
1173.09801248
1173.09685017
1173.09580392
1173.0948655
1173.09402696
1173.09328055
1173.09261881
1173.09203459
1173.09152104
1173.09107164
1173.09068025
1173.09034107
1173.09004866
1173.08979796
1173.08958429
1173.08940332
1173.08925107
1173.08912392
1173.08901861
1173.08893214
1173.08886188
1173.08880545
1173.08876073
1173.08872589
1173.08869929
1173.08867952
1173.08866535
1173.08865573
1173.08864978
1173.08864671
1173.08864591
1173.08864683
1173.08864904
1173.08865217
1173.08865594
1173.0886601
1173.08866448
1173.08866894
1173.08867336
1173.08867767
1173.0886818
1173.08868572
1173.0886894
1173.08869268
1174.76245387
1174.69404716
1174.62794618
1174.56419502
1174.50271392
1174.44345296
1174.38637246
1174.33142789
1174.27859405
1174.2277879
1174.17892946
1174.13194522
1174.08677378
1174.04338001
1174.00169226
1173.96164649
1173.92318666
1173.88624458
1173.85076446
1173.81668999
1173.78397007
1173.75255161
1173.7223871
1173.6934254
1173.66562081
1173.63893574
1173.61332301
1173.58873792
1173.56513987
1173.54249094
1173.52075442
1173.49989484
1173.47987805
1173.4606712
1173.44224276
1173.42456248
1173.40760135
1173.39133158
1173.37572646
1173.36076054
1173.34640953
1173.33265029
1173.31946013
1173.306818
1173.29470599
1173.28310418
1173.27199315
1173.2613552
1173.25117397
1173.2414338
1173.23211978
1173.22321778
1173.21471428
1173.20659647
1173.19885212
1173.19146957
1173.18443762
1173.17774565
1173.17138334
1173.16534062
1173.1596079
1173.15417634
1173.14903669
1173.14418005
1173.13959771
1173.135281
1173.13122126
1173.12740992
1173.12383849
1173.12049856
1173.11738157
1173.11447899
1173.11178223
1173.10928264
1173.10697159
1173.10484039
1173.10288036
1173.10108278
1173.09943901
1173.09794042
1173.09657848
1173.09534473
1173.09423089
1173.0932288
1173.09233051
1173.09152827
1173.0908146
1173.09018229
1173.08962439
1173.08913431
1173.08870574
1173.08833277
1173.08800978
1173.08773156
1173.08749323
1173.08729028
1173.08711855
1173.08697422
1173.08685384
1173.08675424
1173.08667259
1173.08660634
1173.08655323
1173.08651124
1173.08647861
1173.08645378
1173.08643541
1173.08642233
1173.08641355
1173.08640821
1173.08640558
1173.08640507
1173.08640618
1173.08640847
1173.08641163
1173.08641536
1173.08641945
1173.08642373
1173.08642807
1173.08643236
1173.08643652
1173.08644052
1173.0864443
1173.08644784
1173.086451
1174.64490303
1174.58030301
1174.51803103
1174.45803279
1174.40026599
1174.34467344
1174.29119282
1174.23978863
1174.19038591
1174.14290491
1174.09726989
1174.05341233
1174.0112844
1173.97082405
1173.931968
1173.89465236
1173.85881926
1173.82440943
1173.79137014
1173.7596459
1173.7291885
1173.69994628
1173.6718751
1173.64492573
1173.61905912
1173.59423235
1173.57040341
1173.54753268
1173.5255823
1173.5045163
1173.48430018
1173.46490073
1173.44628606
1173.42842549
1173.41128962
1173.39485027
1173.37908043
1173.36395417
1173.34944673
1173.33553444
1173.32219467
1173.30940595
1173.29714723
1173.28539949
1173.27414529
1173.26336574
1173.2530434
1173.24316208
1173.23370645
1173.22466197
1173.21601481
1173.20775184
1173.19986052
1173.19232896
1173.18514581
1173.17830022
1173.1717818
1173.16558063
1173.1596871
1173.15409183
1173.14878592
1173.14376105
1173.13900851
1173.13451999
1173.1302873
1173.12630227
1173.12255675
1173.11904265
1173.11575198
1173.11267679
1173.109809
1173.10714054
1173.10466329
1173.1023691
1173.1002498
1173.0982972
1173.0965031
1173.09485931
1173.09335768
1173.0919901
1173.09074856
1173.08962514
1173.08861205
1173.0877017
1173.08688663
1173.08615965
1173.08551377
1173.08494229
1173.08443879
1173.08399712
1173.0836115
1173.08327642
1173.08298675
1173.08273766
1173.08252468
1173.08234367
1173.08219084
1173.0820627
1173.08195608
1173.08186812
1173.08179624
1173.08173813
1173.08169173
1173.08165524
1173.08162705
1173.08160578
1173.08159021
1173.0815793
1173.08157215
1173.08156802
1173.08156624
1173.08156629
1173.08156773
1173.08157017
1173.08157333
1173.08157697
1173.08158089
1173.08158495
1173.08158902
1173.08159302
1173.08159689
1173.08160059
1173.08160407
1173.08160733
1173.08161022
1174.47615211
1174.41726973
1174.36062274
1174.30617403
1174.25388258
1174.20365435
1174.15543256
1174.10913605
1174.06468007
1174.02199489
1173.98100619
1173.94165346
1173.90387919
1173.86761704
1173.83280558
1173.79938638
1173.76730774
1173.73651341
1173.70695504
1173.67858029
1173.65134494
1173.62520177
1173.60010913
1173.57602585
1173.55291031
1173.53072531
1173.50943435
1173.48900182
1173.46939365
1173.45057732
1173.43252167
1173.41519681
1173.39857405
1173.38262588
1173.36732592
1173.35264898
1173.33857086
1173.32506839
1173.31211954
1173.2997031
1173.28779888
1173.27638776
1173.26545113
1173.2549724
1173.24493459
1173.23532152
1173.226118
1173.21730959
1173.20888263
1173.20082415
1173.19312183
1173.18576399
1173.17873947
1173.17203767
1173.16564849
1173.15956222
1173.1537696
1173.14826174
1173.14303001
1173.13806602
1173.13336187
1173.12890991
1173.12470228
1173.12073149
1173.11699011
1173.11347069
1173.11016581
1173.10706812
1173.10417031
1173.10146514
1173.09894521
1173.09660316
1173.09443155
1173.09242294
1173.09056987
1173.08886488
1173.0873005
1173.08586927
1173.08456378
1173.0833767
1173.08230075
1173.08132879
1173.0804538
1173.07966894
1173.07896752
1173.0783431
1173.07778943
1173.07730054
1173.07687072
1173.07649453
1173.07616682
1173.07588276
1173.07563781
1173.07542774
1173.07524864
1173.0750969
1173.07496919
1173.07486249
1173.07477407
1173.07470143
1173.07464237
1173.07459489
1173.07455725
1173.07452787
1173.07450542
1173.0744887
1173.07447668
1173.0744685
1173.07446339
1173.07446072
1173.07445995
1173.07446064
1173.07446241
1173.07446498
1173.07446808
1173.07447152
1173.07447515
1173.07447885
1173.07448253
1173.07448611
1173.07448956
1173.07449283
1173.0744959
1173.07449876
1173.07450128
1174.26795275
1174.21645763
1174.16706875
1174.11973125
1174.07439848
1174.03095429
1173.9892998
1173.94936211
1173.91106432
1173.87433237
1173.83910051
1173.80530744
1173.77288491
1173.74177621
1173.71192996
1173.68329153
1173.65581365
1173.62944543
1173.60414394
1173.5798634
1173.55656235
1173.53420337
1173.51274543
1173.49215248
1173.47239046
1173.45342656
1173.43522911
1173.41776753
1173.40101247
1173.38493584
1173.36951073
1173.3547114
1173.34051315
1173.32689233
1173.31382635
1173.30129361
1173.28927347
1173.27774616
1173.26669288
1173.25609537
1173.24593663
1173.23620014
1173.22687059
1173.21793276
1173.2093725
1173.20117632
1173.19333131
1173.1858252
1173.17864635
1173.17178372
1173.16522686
1173.15896579
1173.15299104
1173.14729358
1173.14186478
1173.13669637
1173.1317804
1173.12710925
1173.12267552
1173.11847202
1173.11449202
1173.11072868
1173.10717528
1173.10382533
1173.10067229
1173.09770966
1173.09493094
1173.09232969
1173.08989951
1173.08763402
1173.08552671
1173.08357111
1173.08176068
1173.08008887
1173.07854914
1173.07713496
1173.07583978
1173.07465709
1173.07358042
1173.0726034
1173.0717197
1173.07092315
1173.07020768
1173.0695674
1173.06899657
1173.06848966
1173.06804136
1173.06764658
1173.06730046
1173.06699841
1173.06673609
1173.06650944
1173.06631465
1173.0661482
1173.06600683
1173.06588754
1173.06578759
1173.06570449
1173.065636
1173.06558007
1173.06553491
1173.0654989
1173.06547062
1173.06544881
1173.06543239
1173.06542042
1173.06541207
1173.06540664
1173.06540355
1173.06540229
1173.06540245
1173.06540367
1173.06540567
1173.06540822
1173.06541113
1173.06541426
1173.06541748
1173.06542071
1173.06542388
1173.06542694
1173.06542986
1173.06543261
1173.06543518
1173.06543757
1173.06543965
1174.03387301
1173.99114271
1173.95028979
1173.91127502
1173.87397829
1173.83829941
1173.80414915
1173.77145276
1173.74013684
1173.71014228
1173.68139709
1173.65383918
1173.62741727
1173.60208283
1173.57779005
1173.55449197
1173.5321472
1173.51071344
1173.49015209
1173.4704283
1173.45150386
1173.43334652
1173.41592475
1173.39920835
1173.38316903
1173.36777973
1173.35301444
1173.3388481
1173.32525669
1173.31221717
1173.29970751
1173.28770665
1173.27619441
1173.26515149
1173.25455951
1173.24440103
1173.23465939
1173.22531847
1173.21636306
1173.20777819
1173.1995505
1173.19166619
1173.18411259
1173.17687777
1173.16995029
1173.16331927
1173.15697431
1173.1509055
1173.14510346
1173.13955929
1173.13426454
1173.12921117
1173.12439151
1173.11979827
1173.11542445
1173.11126333
1173.10730845
1173.10355359
1173.09999272
1173.09662003
1173.09342989
1173.09041662
1173.08757474
1173.08489881
1173.08238341
1173.08002311
1173.07781246
1173.0757461
1173.07381867
1173.07202483
1173.07035913
1173.06881611
1173.0673903
1173.06607623
1173.06486844
1173.06376146
1173.06274985
1173.06182818
1173.06099112
1173.06023335
1173.0595497
1173.05893507
1173.05838448
1173.05789313
1173.05745635
1173.05706964
1173.05672871
1173.05642944
1173.05616796
1173.05594057
1173.05574383
1173.05557451
1173.05542959
1173.0553063
1173.05520208
1173.05511459
1173.05504169
1173.05498146
1173.05493215
1173.0548922
1173.05486023
1173.05483502
1173.05481547
1173.05480065
1173.05478973
1173.05478201
1173.05477688
1173.05477382
1173.0547724
1173.05477224
1173.05477304
1173.05477456
1173.05477658
1173.05477894
1173.05478151
1173.05478418
1173.05478687
1173.05478954
1173.05479212
1173.05479458
1173.05479692
1173.05479911
1173.05480115
1173.05480302
1173.05480464
1173.78805214
1173.75501428
1173.72352818
1173.69350839
1173.66485935
1173.63749155
1173.61133653
1173.58633111
1173.56240839
1173.5395102
1173.51757839
1173.49656667
1173.4764339
1173.45714153
1173.43865162
1173.42092756
1173.40393378
1173.38764004
1173.37201297
1173.35702436
1173.34264696
1173.32885498
1173.3156241
1173.30293112
1173.29075418
1173.27907246
1173.26786598
1173.25711554
1173.24680269
1173.23690979
1173.22742
1173.21831718
1173.20958592
1173.20121145
1173.19317995
1173.18547836
1173.17809396
1173.17101457
1173.1642284
1173.15772449
1173.15149194
1173.14552071
1173.13980128
1173.13432464
1173.12908215
1173.12406559
1173.11926712
1173.11467925
1173.11029492
1173.1061074
1173.10211031
1173.09829759
1173.09466345
1173.09120234
1173.08790897
1173.0847782
1173.08180512
1173.078985
1173.07631323
1173.07378538
1173.07139699
1173.06914372
1173.06702132
1173.06502556
1173.06315218
1173.06139693
1173.05975555
1173.05822383
1173.05679759
1173.05547263
1173.05424465
1173.05310936
1173.05206248
1173.05109971
1173.05021679
1173.04940945
1173.04867344
1173.04800455
1173.04739863
1173.0468516
1173.04635944
1173.04591824
1173.0455242
1173.04517364
1173.04486302
1173.04458893
1173.04434813
1173.04413753
1173.04395422
1173.04379545
1173.04365866
1173.04354146
1173.04344162
1173.04335712
1173.04328608
1173.04322679
1173.04317772
1173.04313747
1173.0431048
1173.04307858
1173.04305784
1173.0430417
1173.0430294
1173.04302028
1173.04301377
1173.04300938
1173.04300669
1173.04300534
1173.04300504
1173.04300554
1173.04300663
1173.04300814
1173.04300995
1173.04301193
1173.04301402
1173.04301613
1173.04301822
1173.04302026
1173.04302221
1173.04302407
1173.0430258
1173.04302743
1173.04302892
1173.04303029
1173.04303146
1173.54362524
1173.52062254
1173.49872494
1173.47786914
1173.45798838
1173.43901595
1173.42090485
1173.40360923
1173.38707339
1173.37125258
1173.35610811
1173.34160632
1173.32771837
1173.31441788
1173.30167611
1173.2894677
1173.27776506
1173.26654563
1173.25578805
1173.2454719
1173.2355783
1173.22608919
1173.21698757
1173.20825733
1173.19988327
1173.19185092
1173.18414638
1173.1767563
1173.1696679
1173.16286893
1173.15634772
1173.15009308
1173.14409429
1173.13834127
1173.13282466
1173.12753563
1173.12246536
1173.11760558
1173.11294774
1173.10848414
1173.10420764
1173.10011137
1173.09618882
1173.09243382
1173.08884045
1173.08540308
1173.08211634
1173.07897511
1173.07597456
1173.0731101
1173.07037736
1173.06777219
1173.06529061
1173.06292882
1173.06068316
1173.05855007
1173.05652619
1173.05460825
1173.05279308
1173.0510775
1173.04945839
1173.04793276
1173.04649761
1173.04514992
1173.04388668
1173.04270487
1173.04160148
1173.04057352
1173.03961804
1173.03873205
1173.03791247
1173.03715628
1173.03646042
1173.03582186
1173.03523758
1173.03470457
1173.03421983
1173.03378042
1173.03338342
1173.03302598
1173.0327053
1173.03241867
1173.03216345
1173.03193712
1173.03173723
1173.03156146
1173.03140759
1173.03127353
1173.03115729
1173.03105704
1173.03097104
1173.0308977
1173.03083554
1173.03078322
1173.03073948
1173.03070322
1173.03067343
1173.03064919
1173.03062969
1173.03061421
1173.03060213
1173.03059288
1173.03058599
1173.03058102
1173.03057763
1173.0305755
1173.03057437
1173.03057402
1173.03057428
1173.03057498
1173.030576
1173.03057725
1173.03057865
1173.03058012
1173.03058162
1173.03058311
1173.03058457
1173.03058597
1173.03058731
1173.03058856
1173.03058973
1173.03059081
1173.03059181
1173.03059272
1173.03059347
1173.3109134
1173.29771325
1173.28512568
1173.27313912
1173.26171484
1173.25082031
1173.2404352
1173.23052219
1173.22104712
1173.21198496
1173.20331337
1173.19501278
1173.18706718
1173.1794624
1173.1721809
1173.16520423
1173.15851761
1173.15210811
1173.1459636
1173.14007219
1173.13442295
1173.12900547
1173.12380993
1173.11882709
1173.1140482
1173.10946493
1173.10506926
1173.10085351
1173.0968103
1173.0929326
1173.08921369
1173.08564708
1173.08222668
1173.07894679
1173.07580215
1173.07278792
1173.06989922
1173.06713059
1173.06447723
1173.06193497
1173.05949974
1173.05716766
1173.05493503
1173.05279832
1173.05075417
1173.04879937
1173.04693086
1173.04514574
1173.04344125
1173.0418148
1173.04026389
1173.03878616
1173.03737935
1173.03604129
1173.03476987
1173.03356304
1173.03241888
1173.03133558
1173.03031125
1173.02934402
1173.02843209
1173.02757376
1173.02676727
1173.02601082
1173.02530267
1173.02464104
1173.02402417
1173.02345031
1173.02291773
1173.0224247
1173.02196939
1173.02155003
1173.02116482
1173.02081201
1173.02048983
1173.02019653
1173.01993037
1173.01968963
1173.01947263
1173.01927771
1173.01910329
1173.01894778
1173.0188097
1173.01868758
1173.01858006
1173.01848579
1173.01840353
1173.01833211
1173.0182704
1173.01821738
1173.01817207
1173.01813361
1173.01810115
1173.01807397
1173.01805138
1173.01803276
1173.01801756
1173.01800529
1173.01799552
1173.01798785
1173.01798194
1173.01797749
1173.01797425
1173.017972
1173.01797054
1173.01796971
1173.01796938
1173.01796944
1173.01796978
1173.01797034
1173.01797104
1173.01797184
1173.01797269
1173.01797357
1173.01797446
1173.01797532
1173.01797616
1173.01797695
1173.01797771
1173.01797841
1173.01797906
1173.01797966
1173.01798022
1173.01798072
1173.01798112
1173.09616929
1173.09208748
1173.08817736
1173.08445182
1173.08089971
1173.07751763
1173.07429858
1173.07122593
1173.06828907
1173.06548096
1173.06279464
1173.060224
1173.05776451
1173.05541334
1173.05316249
1173.05100554
1173.04893865
1173.04695775
1173.04505911
1173.04323899
1173.04149397
1173.0398208
1173.03821643
1173.03667797
1173.03520272
1173.03378808
1173.03243154
1173.0311307
1173.02988325
1173.02868701
1173.02753988
1173.02643978
1173.0253849
1173.02437347
1173.0234039
1173.02247492
1173.0215849
1173.02073179
1173.01991428
1173.01913113
1173.01838109
1173.01766297
1173.01697562
1173.01631796
1173.01568893
1173.01508755
1173.01451287
1173.01396399
1173.01344007
1173.01294031
1173.01246393
1173.01201021
1173.01157845
1173.01116797
1173.01077811
1173.01040824
1173.01005779
1173.00972618
1173.00941282
1173.00911711
1173.0088385
1173.00857647
1173.00833046
1173.0080999
1173.00788423
1173.00768291
1173.00749537
1173.00732108
1173.0071595
1173.00701008
1173.00687224
1173.00674542
1173.00662908
1173.00652265
1173.00642558
1173.00633734
1173.00625737
1173.00618515
1173.00612015
1173.00606185
1173.00600977
1173.00596342
1173.00592233
1173.00588606
1173.00585418
1173.0058263
1173.00580201
1173.00578097
1173.00576284
1173.0057473
1173.00573406
1173.00572284
1173.00571341
1173.00570554
1173.00569902
1173.00569367
1173.00568933
1173.00568584
1173.00568308
1173.00568093
1173.00567929
1173.00567807
1173.0056772
1173.00567662
1173.00567625
1173.00567607
1173.00567603
1173.00567609
1173.00567623
1173.00567643
1173.00567666
1173.00567693
1173.0056772
1173.00567748
1173.00567776
1173.00567802
1173.00567828
1173.00567853
1173.00567876
1173.00567897
1173.00567917
1173.00567935
1173.00567952
1173.00567967
1173.0056798
)
;

boundaryField
{
    inlet
    {
        type            fixedValue;
        value           uniform 1173;
    }
    wall01
    {
        type            fixedValue;
        value           uniform 1173;
    }
    axis
    {
        type            empty;
    }
    outlet
    {
        type            inletOutlet;
        inletValue      uniform 1173;
        value           nonuniform List<scalar> 10(1173.08868241 1173.08644073 1173.08159995 1173.07449101 1173.06542938 1173.05479437 1173.04302119 1173.0305832 1173.01797086 1173.00566953);
    }
    front
    {
        type            wedge;
    }
    back
    {
        type            wedge;
    }
}


// ************************************************************************* //
