/*--------------------------------*- C++ -*----------------------------------*\
  =========                 |
  \\      /  F ield         | OpenFOAM: The Open Source CFD Toolbox
   \\    /   O peration     | Website:  https://openfoam.org
    \\  /    A nd           | Version:  dev
     \\/     M anipulation  |
\*---------------------------------------------------------------------------*/
FoamFile
{
    version     2.0;
    format      ascii;
    class       volVectorField;
    location    "0.13";
    object      U;
}
// * * * * * * * * * * * * * * * * * * * * * * * * * * * * * * * * * * * * * //

dimensions      [0 1 -1 0 0 0 0];

internalField   nonuniform List<vector> 
1350
(
(1.36293752867 -1.66366433936e-11 -0.0141739488175)
(1.68253671844 -8.42549620054e-10 -0.00634154735586)
(1.81631725628 -4.23832625683e-11 -0.00339526060774)
(1.89982981563 4.07680816697e-10 -0.00227550218094)
(1.96218859895 2.36860877759e-10 -0.00163887941111)
(1.35691050434 -4.5129637506e-11 -0.0371337544394)
(1.67269452453 -3.39317430697e-10 -0.0159783011593)
(1.80173190104 3.443354717e-11 -0.00894022292277)
(1.88040660439 1.26205289827e-09 -0.00594091214358)
(1.93861747551 6.3930654977e-10 -0.00421544674746)
(1.34310996243 -7.76532182643e-11 -0.0591536610266)
(1.65071394758 -7.44953340803e-11 -0.0236143909092)
(1.76774141755 2.56296023601e-10 -0.0136853931753)
(1.83564879348 7.8164612707e-10 -0.00894792629821)
(1.88486080718 7.85745047352e-10 -0.00619075735149)
(1.31920940619 -1.21286882128e-10 -0.0804364909945)
(1.61328637037 9.95246746392e-11 -0.0305750676754)
(1.71036155159 6.26729764922e-10 -0.0176499592847)
(1.7616472929 8.32661730293e-10 -0.0111847926219)
(1.79767706029 1.03510626706e-09 -0.00751770860382)
(1.28092315641 -1.8273521409e-10 -0.0990503201756)
(1.55378005146 3.23181327235e-10 -0.036013580768)
(1.62180433742 3.2409264214e-10 -0.0200918089431)
(1.65092896819 3.20775089554e-10 -0.0121452290411)
(1.67072857158 4.82481601784e-10 -0.0078793985091)
(1.22162902827 -2.72742229438e-10 -0.113274086939)
(1.46192465905 2.58584033936e-11 -0.0390410755511)
(1.49082078949 1.39565169034e-10 -0.0204031636616)
(1.49374543336 -8.58582847151e-11 -0.0115243065238)
(1.4964585384 1.87117254702e-10 -0.00715941232049)
(1.13105415583 -4.11918706728e-10 -0.120557920087)
(1.32222871795 -6.58086852245e-11 -0.0385802149691)
(1.30277685667 5.24695934643e-11 -0.0181087401066)
(1.27939001212 -1.25541034491e-11 -0.00927632540519)
(1.26767790801 8.20172462735e-11 -0.00548402892265)
(0.991882245771 -2.04887226678e-10 -0.11575760162)
(1.11136791672 -7.82723358144e-12 -0.033140487482)
(1.04093901995 3.16958292124e-11 -0.0131382857602)
(0.998753021495 1.34789899508e-12 -0.00583343945285)
(0.979563541096 3.86184631702e-11 -0.00329329878365)
(0.770715014593 -1.43248184414e-10 -0.0893565682146)
(0.794721435827 1.16115863683e-10 -0.0213902478557)
(0.691038262023 2.860274548e-11 -0.00651279650904)
(0.648162980423 3.35985580766e-12 -0.00233349313179)
(0.631295366753 1.79974253109e-11 -0.00130847098466)
(0.389727406202 -1.53867613801e-10 -0.0331746618093)
(0.325126605609 -9.57583457267e-11 -0.00466960154321)
(0.251338791853 5.54970339892e-12 -0.000401314303532)
(0.232202311176 9.53050111551e-13 -0.00010817579806)
(0.225738451117 5.069893954e-12 -0.000121568145693)
(2.00639517736 -1.36435455063e-10 -0.00117993987355)
(2.0380609421 -1.87473267957e-11 -0.000854422772288)
(2.06098283679 -2.06780100536e-10 -0.000620896266735)
(2.07749492872 -3.84708548181e-10 -0.000451567365303)
(2.08951075454 -1.61532295901e-10 -0.000279205638464)
(1.97939254919 -5.11207590389e-10 -0.00303054057807)
(2.00832198671 -3.00131539569e-11 -0.00218999513772)
(2.02912835949 -5.99210239711e-10 -0.00158831675652)
(2.04403954779 -1.13816131615e-09 -0.00115324073734)
(2.05487754886 -4.02787848462e-10 -0.000715988004907)
(1.918330593 2.42569206997e-10 -0.00440871623438)
(1.94153777651 1.66705081964e-10 -0.00316078350225)
(1.95797570632 -1.19451578107e-10 -0.0022778914285)
(1.96961001961 -4.14313773597e-10 -0.00164653310743)
(1.97804444832 -2.70527595258e-10 -0.00102201986709)
(1.82087322862 4.66731219756e-10 -0.00526928705271)
(1.83628755646 2.73765488258e-10 -0.0037308512748)
(1.84691672956 9.03419856169e-11 -0.00266394700488)
(1.85426768429 -9.61658295569e-11 -0.00191456174998)
(1.859587567 -1.17985727676e-10 -0.00118690719648)
(1.68200617072 3.57034426279e-10 -0.00540799682336)
(1.68877726956 2.58708386882e-10 -0.00376903514935)
(1.69317366976 1.51436372284e-10 -0.00266150415325)
(1.69603408193 3.3987531897e-11 -0.00190097418059)
(1.69812794149 -2.16518635822e-11 -0.00117668992687)
(1.49613747236 2.17765997849e-10 -0.00479727799849)
(1.49496003696 2.01848756923e-10 -0.00328588670949)
(1.49385256922 1.48490632629e-10 -0.00229377376794)
(1.49285429359 7.6047184887e-11 -0.00162934906243)
(1.49220940945 2.40222347613e-11 -0.00100784849499)
(1.25849205294 1.25306808575e-10 -0.00359348315666)
(1.25164209025 1.53424900231e-10 -0.00242155688227)
(1.24679238139 1.25506904739e-10 -0.00167341779699)
(1.24325011136 7.8311129335e-11 -0.00118477359653)
(1.24081285994 3.79306951772e-11 -0.00073366327142)
(0.966390112158 7.06164572796e-11 -0.00213350585874)
(0.957265779068 1.28616870733e-10 -0.00141981951983)
(0.95104613176 9.78840723913e-11 -0.000974262030627)
(0.946626399654 6.25559628578e-11 -0.000690080348368)
(0.943562976921 3.3664549535e-11 -0.000428835340418)
(0.619825111665 3.65842316807e-11 -0.000860151905939)
(0.612065826219 1.28360741851e-10 -0.00056727764281)
(0.606876196284 6.53382923368e-11 -0.000387954562046)
(0.603217953812 3.83880399176e-11 -0.000276489662457)
(0.600667709941 2.09938599469e-11 -0.000172864584799)
(0.22079516523 1.10255649656e-11 -7.95555979353e-05)
(0.217479361909 1.54101576366e-10 -5.05683514902e-05)
(0.215293044296 2.29448193827e-11 -3.49639978471e-05)
(0.213748864873 1.16516725173e-11 -2.59272110117e-05)
(0.212665158864 6.33762414515e-12 -1.56074840965e-05)
(2.09320618363 -1.06734367557e-10 -0.000246748845808)
(2.09635668145 -7.19344006559e-11 -0.000275389558864)
(2.09902587164 -4.97221177996e-11 -0.000252671405906)
(2.101465689 -3.54005587906e-11 -0.00022608649288)
(2.10365567913 -2.65574556541e-11 -0.000202176194343)
(2.1055973416 -2.98818806881e-11 -0.000180269657429)
(2.10731757374 -3.37850684887e-11 -0.000160534666619)
(2.10884193843 -3.61838734124e-11 -0.000142948051035)
(2.11019215205 -3.62152295461e-11 -0.000127304067826)
(2.11138768415 -3.42615819307e-11 -0.000113394285457)
(2.11244601641 -3.11576919947e-11 -0.000101030219023)
(2.11338267992 -2.81005187094e-11 -9.00404948562e-05)
(2.1142114473 -3.41198065843e-11 -8.02643121992e-05)
(2.1149445382 -4.13327327334e-11 -7.15723665976e-05)
(2.11559277564 -4.52695213159e-11 -6.38386249909e-05)
(2.11616576295 -4.34892281247e-11 -5.69589523762e-05)
(2.11667201534 -3.97694232299e-11 -5.08356419744e-05)
(2.11711908291 -3.5220030971e-11 -4.53862446487e-05)
(2.11751366726 -2.83200966846e-11 -4.0536368153e-05)
(2.1178617144 -2.12996730852e-11 -3.62180525763e-05)
(2.1181685048 -2.4729436103e-11 -3.23692435181e-05)
(2.11843872672 -3.09358051169e-11 -2.89424286678e-05)
(2.1186765367 -3.52722108578e-11 -2.58865676668e-05)
(2.11888560883 -3.67436332028e-11 -2.31682402295e-05)
(2.11906924203 -3.59474814457e-11 -2.07386072441e-05)
(2.11923035677 -3.37521857743e-11 -1.85710132481e-05)
(2.11937152196 -3.10478702315e-11 -1.66392881771e-05)
(2.11949501869 -3.36603067072e-11 -1.49222014476e-05)
(2.11960288321 -2.49062842304e-10 -1.33882832637e-05)
(2.11969692986 -1.84035969001e-10 -1.20184147227e-05)
(2.11977876267 -1.20384336452e-10 -1.0794663722e-05)
(2.11984980385 -8.21571383462e-11 -9.70198197818e-06)
(2.11991131471 -5.92736551284e-11 -8.72592278175e-06)
(2.11996441434 -4.37594921137e-11 -7.85371888631e-06)
(2.12001009528 -3.12222002973e-11 -7.073940353e-06)
(2.1200492371 -2.17785529407e-11 -6.37651907782e-06)
(2.12008262269 -1.5618832175e-11 -5.75307617244e-06)
(2.12011094832 -8.95622229404e-12 -5.19432529675e-06)
(2.12013482638 -2.22647148337e-12 -4.69464035707e-06)
(2.12015479603 4.12173149139e-12 -4.24674905824e-06)
(2.12017135142 4.08149337648e-11 -3.84536095432e-06)
(2.12018491448 4.99170602366e-11 -3.48502066918e-06)
(2.1201958328 4.29794226907e-11 -3.16777906925e-06)
(2.12020447525 3.34053902135e-11 -2.87483477786e-06)
(2.12021113806 2.62409516244e-11 -2.60654803165e-06)
(2.12021607903 2.18795822088e-11 -2.36298133852e-06)
(2.12021952163 1.94418813557e-11 -2.15734887085e-06)
(2.12022163865 1.80793568122e-11 -1.97052518614e-06)
(2.12022262941 1.72325631221e-11 -1.7997974271e-06)
(2.12022265593 1.65871503764e-11 -1.64353969064e-06)
(2.12022185254 1.59884141441e-11 -1.5023333825e-06)
(2.12022033834 1.53725433892e-11 -1.3742288914e-06)
(2.12021821883 1.47239980798e-11 -1.2582155574e-06)
(2.12021558467 1.41304586722e-11 -1.15287147643e-06)
(2.12021251715 1.58031944736e-11 -1.0567500295e-06)
(2.1202090859 6.10133092368e-11 -9.69203020608e-07)
(2.12020534774 7.76628715039e-11 -8.89850348647e-07)
(2.1202013605 7.78807577567e-11 -8.16294797319e-07)
(2.12019717279 7.25015753041e-11 -7.49181348363e-07)
(2.1201927953 6.60760272752e-11 -6.94115736687e-07)
(2.12018826088 6.01366742709e-11 -6.35386948942e-07)
(2.12018364177 5.52825588976e-11 -5.78019187391e-07)
(2.12017896836 5.16317015246e-11 -5.21499194558e-07)
(2.12017420761 4.86166560524e-11 -4.9282185533e-07)
(2.12016939183 4.59982222622e-11 -4.45615713037e-07)
(2.12016456519 4.36300779739e-11 -4.06056615846e-07)
(2.12015970598 4.12647691775e-11 -3.72564818143e-07)
(2.12015481224 3.89406786342e-11 -3.42526312254e-07)
(2.12014989619 3.69094869923e-11 -3.10352893057e-07)
(2.12014498352 3.6967900972e-11 -2.80495303215e-07)
(2.12014007899 3.82753522776e-11 -2.55000230957e-07)
(2.12013516472 7.80489993484e-11 -2.30640771806e-07)
(2.12013024911 9.40106566008e-11 -2.0753684427e-07)
(2.1201253351 9.61221136307e-11 -1.86640818327e-07)
(2.12012041871 9.21888308976e-11 -1.66942199653e-07)
(2.12011550458 8.60033710617e-11 -1.46845875277e-07)
(2.12011058879 7.93149744001e-11 -1.30745216064e-07)
(2.12010567138 7.28579234047e-11 -1.14253259481e-07)
(2.12010074899 6.68967526737e-11 -1.00082746353e-07)
(2.12009582128 6.17230062442e-11 -8.57597242335e-08)
(2.12009088903 5.91388609445e-11 -7.31647571413e-08)
(2.1200859487 5.63248486406e-11 -6.11575966006e-08)
(2.12008099925 5.33474394914e-11 -5.01398045792e-08)
(2.12007603915 5.25094797899e-11 -3.98493503915e-08)
(2.12007106712 5.14065233683e-11 -3.06250271674e-08)
(2.12006608121 5.17211873111e-11 -2.16463274242e-08)
(2.12006108039 4.25925874084e-11 -1.34225101043e-08)
(2.12005606358 -1.06533684036e-09 -6.01445646796e-09)
(2.12005102922 -1.92956813422e-10 6.15842574769e-10)
(2.12004597743 -7.19703202633e-12 7.01126591225e-09)
(2.12004090928 4.13462003944e-11 1.23729584548e-08)
(2.12003582698 5.99348177106e-11 1.74208831445e-08)
(2.12003073179 6.77429791576e-11 2.1528461867e-08)
(2.12002562476 7.04349772104e-11 2.53248217111e-08)
(2.12002050705 7.25252755859e-11 2.84212651864e-08)
(2.12001538033 7.25362564815e-11 3.15091866394e-08)
(2.12001024527 7.0784145185e-11 3.38103292583e-08)
(2.12000510194 6.81551930524e-11 3.60243771293e-08)
(2.11999995105 6.63588368854e-11 3.7691698341e-08)
(2.11999479402 6.28175514414e-11 3.95488315627e-08)
(2.1199896313 5.87051002181e-11 4.07361597783e-08)
(2.11998446268 5.53430143064e-11 4.19796684852e-08)
(2.1199792887 5.49573958347e-11 4.27807228619e-08)
(2.11997411063 5.45602770622e-11 4.39220508829e-08)
(2.11996892882 5.3981948217e-11 4.44168032272e-08)
(2.11996374289 5.50173139291e-11 4.50980231153e-08)
(2.1199585533 5.48058743319e-11 4.53965633494e-08)
(2.11995336123 5.35953397526e-11 4.60941383924e-08)
(2.11994816688 5.26406879442e-11 4.6241988416e-08)
(2.11994296975 5.10400130088e-11 4.66068565484e-08)
(2.11993777019 1.40933006514e-11 4.66354278396e-08)
(2.11993256929 6.8235091166e-12 4.71192377041e-08)
(2.11992736715 1.53634844984e-11 4.70549721357e-08)
(2.11992216318 2.43667593528e-11 4.72258047165e-08)
(2.11991695765 3.07890749794e-11 4.7148956399e-08)
(2.11991175153 3.65547746212e-11 4.74880598661e-08)
(2.11990654491 3.89694060236e-11 4.73543305486e-08)
(2.11990133722 3.8961629259e-11 4.7418256653e-08)
(2.11989612903 3.78376154962e-11 4.72006041829e-08)
(2.11989092222 3.63022012684e-11 4.71984319294e-08)
(2.11988571953 3.4599752819e-11 4.61025662466e-08)
(2.11988053455 3.28005702123e-11 4.38258784181e-08)
(2.11987536694 3.11138702124e-11 3.29713410504e-08)
(2.1198705354 3.12064432088e-11 3.28700089979e-08)
(2.11986466953 3.03809068307e-11 -8.46385509646e-08)
(2.05819696262 -2.63512049094e-10 -0.00063133088183)
(2.06101716269 -1.79160418837e-10 -0.000687647485627)
(2.06340334594 -1.25313039576e-10 -0.000639538821918)
(2.06558172946 -9.02788217813e-11 -0.000572440906937)
(2.06753824902 -6.88356396604e-11 -0.000511580457189)
(2.06927229404 -8.75225955841e-11 -0.000456366096042)
(2.07080789777 -9.93953004626e-11 -0.00040650484982)
(2.07216824389 -1.05440958401e-10 -0.000361980096879)
(2.07337282153 -1.0380787096e-10 -0.000322368213131)
(2.0744390564 -9.66686531453e-11 -0.00028715127812)
(2.07538260414 -8.67871323545e-11 -0.000255845650449)
(2.07621737168 -7.75710529716e-11 -0.000228017900711)
(2.07695568324 -1.0125421144e-10 -0.000203265004453)
(2.07760847298 -1.22810182929e-10 -0.000181253552427)
(2.0781854243 -1.3179995133e-10 -0.000161672690768)
(2.0786951281 -1.22506069672e-10 -0.000144248111038)
(2.0791452028 -1.10527686611e-10 -0.000128745182869)
(2.07954240115 -9.69472708796e-11 -0.000114946878895)
(2.07989272019 -7.53874070452e-11 -0.000102664081364)
(2.08020147976 -5.4946652808e-11 -9.17276474699e-05)
(2.0804734033 -7.23505153906e-11 -8.19815048853e-05)
(2.08071268516 -9.21136695898e-11 -7.3303111226e-05)
(2.08092304339 -1.03374123852e-10 -6.55656249079e-05)
(2.08110776354 -1.05593525609e-10 -5.86805038384e-05)
(2.08126980073 -1.01660692374e-10 -5.25264024689e-05)
(2.08141176474 -9.44749148346e-11 -4.70368390999e-05)
(2.08153594982 -8.64591708164e-11 -4.21480295439e-05)
(2.08164439738 -9.30419311797e-11 -3.77975922967e-05)
(2.08173892978 -9.18805408474e-10 -3.39126309948e-05)
(2.08182116797 -4.97661864886e-10 -3.04429615658e-05)
(2.08189254558 -3.03137437434e-10 -2.7344032977e-05)
(2.08195433342 -2.07618451435e-10 -2.45767988146e-05)
(2.08200765858 -1.51935387542e-10 -2.21048784697e-05)
(2.08205352056 -1.12853485239e-10 -1.9895886845e-05)
(2.08209280567 -7.93847978621e-11 -1.79209421792e-05)
(2.08212629885 -5.48558356911e-11 -1.61546344585e-05)
(2.08215469923 -3.97311549512e-11 -1.45755006461e-05)
(2.08217862782 -2.03070472872e-11 -1.31605405868e-05)
(2.0821986308 -1.22346208369e-12 -1.18946978872e-05)
(2.08221518885 1.54652931828e-11 -1.0759913164e-05)
(2.08222874322 1.39042863799e-10 -9.74431142603e-06)
(2.08223966834 1.47861564283e-10 -8.83144895706e-06)
(2.08224827336 1.18167282773e-10 -8.02496542545e-06)
(2.08225489439 8.88227867891e-11 -7.27260896154e-06)
(2.08225978752 6.95498011807e-11 -6.61423478541e-06)
(2.08226317657 5.88225636113e-11 -5.99327902219e-06)
(2.08226526563 5.32228825065e-11 -5.4682182822e-06)
(2.08226620818 5.01991354499e-11 -4.99531773944e-06)
(2.08226618057 4.82628476354e-11 -4.5613231222e-06)
(2.08226532605 4.66531427246e-11 -4.16579023182e-06)
(2.08226376296 4.50340121291e-11 -3.80803996492e-06)
(2.08226159665 4.32926832968e-11 -3.48367415781e-06)
(2.08225892002 4.14265613953e-11 -3.18963352786e-06)
(2.08225581275 3.97164295661e-11 -2.92267508745e-06)
(2.08225234622 4.5083527742e-11 -2.67910183485e-06)
(2.08224858111 2.09440962618e-10 -2.45734525582e-06)
(2.08224456692 2.35911259898e-10 -2.25595872376e-06)
(2.08224035466 2.23569567095e-10 -2.06964770538e-06)
(2.08223598485 2.03319106653e-10 -1.9000506234e-06)
(2.08223146558 1.83787873051e-10 -1.75909451168e-06)
(2.08222682701 1.66912259966e-10 -1.61107024419e-06)
(2.08222213485 1.53597849162e-10 -1.46577815226e-06)
(2.08221741129 1.43890584124e-10 -1.32809162544e-06)
(2.08221262627 1.35693222681e-10 -1.24589707221e-06)
(2.08220781099 1.28554012556e-10 -1.1300885838e-06)
(2.08220299952 1.21998651844e-10 -1.02929532577e-06)
(2.08219817199 1.15345285209e-10 -9.45335266621e-07)
(2.08219332559 1.08946112834e-10 -8.69096834457e-07)
(2.08218847021 1.03570532236e-10 -7.87436211044e-07)
(2.08218362873 1.05505204596e-10 -7.12106121385e-07)
(2.08217880618 1.09199347901e-10 -6.46466027543e-07)
(2.08217398325 2.55567208714e-10 -5.86193893919e-07)
(2.08216916728 2.79894745323e-10 -5.26683523093e-07)
(2.08216436023 2.73853488465e-10 -4.74176724373e-07)
(2.08215955795 2.58127649613e-10 -4.23103116567e-07)
(2.08215476349 2.39399983328e-10 -3.7530566033e-07)
(2.08214997277 2.20475611113e-10 -3.32005720552e-07)
(2.0821451858 2.02487649175e-10 -2.90687911711e-07)
(2.08214039839 1.85929138308e-10 -2.54204106484e-07)
(2.08213560984 1.7170186664e-10 -2.18883856221e-07)
(2.08213082052 1.66285000558e-10 -1.8665781793e-07)
(2.08212602687 1.58143398218e-10 -1.56403317767e-07)
(2.0821212274 1.49412830851e-10 -1.28430269297e-07)
(2.08211642029 1.48666677231e-10 -1.02639561695e-07)
(2.08211160434 1.4532331249e-10 -7.86476332112e-08)
(2.0821067773 1.47608278032e-10 -5.63017495082e-08)
(2.08210193769 1.41714365625e-10 -3.52665389642e-08)
(2.0820970843 -6.18285052254e-11 -1.69323543955e-08)
(2.08209221518 3.17389560168e-11 5.2924004029e-10)
(2.08208732981 1.08719083938e-10 1.64079483703e-08)
(2.08208242975 1.53563089833e-10 3.01941047828e-08)
(2.08207751739 1.84277110257e-10 4.26734206287e-08)
(2.08207259385 1.98262610603e-10 5.32559380199e-08)
(2.08206766006 2.02221073544e-10 6.27167038594e-08)
(2.08206271702 2.08017187127e-10 7.07998069963e-08)
(2.08205776619 2.06758074658e-10 7.82018860521e-08)
(2.08205280809 2.00727643463e-10 8.42085098515e-08)
(2.08204784271 1.92678401254e-10 8.96570512497e-08)
(2.08204287064 1.88199931543e-10 9.41400376331e-08)
(2.08203789316 1.76591968343e-10 9.8415745525e-08)
(2.08203291062 1.6420376188e-10 1.01655227465e-07)
(2.08202792278 1.5491315176e-10 1.04639510647e-07)
(2.0820229301 1.55971109009e-10 1.06960081252e-07)
(2.08201793377 1.54655055172e-10 1.09369319188e-07)
(2.08201293405 1.52655633898e-10 1.10933675997e-07)
(2.08200793058 1.56965274572e-10 1.12483573329e-07)
(2.08200292378 1.55597438946e-10 1.13543738437e-07)
(2.08199791474 1.51462515606e-10 1.14883467255e-07)
(2.08199290362 1.48942763047e-10 1.15513790599e-07)
(2.08198788993 1.44763343377e-10 1.16251500032e-07)
(2.08198287402 1.12862567263e-11 1.16639828963e-07)
(2.08197785689 1.28548546673e-11 1.17373254914e-07)
(2.08197283863 4.8807299929e-11 1.17525505593e-07)
(2.08196781867 7.47795012616e-11 1.17862443156e-07)
(2.08196279726 9.11951736515e-11 1.17906806073e-07)
(2.08195777534 1.07510838935e-10 1.18377613847e-07)
(2.08195275295 1.1226528622e-10 1.18275285393e-07)
(2.08194772955 1.10713057009e-10 1.18345491743e-07)
(2.08194270569 1.06840119693e-10 1.18038280714e-07)
(2.08193768309 1.02248681423e-10 1.17655268803e-07)
(2.0819326643 9.73363246912e-11 1.15274240544e-07)
(2.08192766126 9.21849481534e-11 1.09175859467e-07)
(2.08192267882 8.74473255494e-11 8.52381844132e-08)
(2.08191800727 8.90107104263e-11 6.08822375288e-08)
(2.08191230951 8.58505591082e-11 -1.93134187137e-07)
(1.98060603207 -2.11999859607e-10 -0.000902213588606)
(1.9827617717 -1.60125078257e-10 -0.000966752289513)
(1.98457548291 -1.21094858043e-10 -0.000905277489381)
(1.98623046319 -9.31942817885e-11 -0.000809409010688)
(1.98771779556 -7.74522501747e-11 -0.00072248567101)
(1.98903492591 -1.7591162813e-10 -0.000644572083232)
(1.99020022871 -1.8603871281e-10 -0.000574217921115)
(1.99123174461 -1.88858368126e-10 -0.000511326833324)
(1.9921444097 -1.74002446601e-10 -0.000455385217952)
(1.99295153125 -1.52667376399e-10 -0.00040566160916)
(1.99366507966 -1.30597929581e-10 -0.000361459385582)
(1.99429568774 -1.12266538569e-10 -0.000322161994743)
(1.99485276935 -2.03086850716e-10 -0.000287215690339)
(1.99534467839 -2.37277556521e-10 -0.000256128198005)
(1.9957788134 -2.33528408172e-10 -0.000228477095331)
(1.99616173602 -1.88392530064e-10 -0.000203870140693)
(1.99649926736 -1.64515431168e-10 -0.000181976710008)
(1.99679656745 -1.3939052658e-10 -0.000162488544581)
(1.99705821822 -8.9209352281e-11 -0.000145137021448)
(1.99728828488 -5.4396085922e-11 -0.000129686220722)
(1.9974903753 -1.46001154655e-10 -0.000115920089293)
(1.99766769532 -1.81675987484e-10 -0.000103657378355)
(1.99782308302 -1.88226119012e-10 -9.27315526361e-05)
(1.99795904839 -1.78417604661e-10 -8.29965240864e-05)
(1.99807785293 -1.62046061745e-10 -7.43002532194e-05)
(1.99818148163 -1.45498420576e-10 -6.6547219494e-05)
(1.9982716852 -1.3104263829e-10 -5.96440122877e-05)
(1.9983500237 -1.22409984982e-10 -5.34931309708e-05)
(1.99841788679 -2.74553280043e-10 -4.80014182413e-05)
(1.99847650876 -2.78304897779e-10 -4.30970234455e-05)
(1.99852698174 -2.27170710601e-10 -3.87173785853e-05)
(1.99857027345 -1.9859754666e-10 -3.48061129705e-05)
(1.99860724141 -1.61329829704e-10 -3.1311909733e-05)
(1.99863864542 -1.2193359454e-10 -2.81890606206e-05)
(1.99866515873 -7.58719812431e-11 -2.53966657822e-05)
(1.99868737651 -5.02715576732e-11 -2.28988243804e-05)
(1.99870582984 -4.04712776426e-11 -2.06656209858e-05)
(1.99872098958 -4.23820775218e-13 -1.86645988854e-05)
(1.99873326928 3.00743899942e-11 -1.68731999767e-05)
(1.9987430309 4.5280665692e-11 -1.5267853435e-05)
(1.99875061062 3.8678451688e-10 -1.3832769398e-05)
(1.99875628908 2.44459545804e-10 -1.25415505822e-05)
(1.99876030016 1.50172367368e-10 -1.13940201647e-05)
(1.99876289572 1.03117070357e-10 -1.03285502012e-05)
(1.99876427338 8.4386569663e-11 -9.39325457738e-06)
(1.99876459173 7.85591374039e-11 -8.52654806873e-06)
(1.99876399801 7.72735377308e-11 -7.7808471436e-06)
(1.99876261716 7.68591011087e-11 -7.10728354998e-06)
(1.9987605775 7.59784652073e-11 -6.49008799764e-06)
(1.99875798388 7.4301643669e-11 -5.92944480449e-06)
(1.99875492375 7.18944245003e-11 -5.42208946722e-06)
(1.99875147457 6.89469150762e-11 -4.96193991635e-06)
(1.99874770402 6.56682141637e-11 -4.54452426979e-06)
(1.99874366966 6.26563308222e-11 -4.16533206217e-06)
(1.99873942312 7.41793736877e-11 -3.81932484014e-06)
(1.99873500717 6.24328088411e-10 -3.50414846862e-06)
(1.99873045656 4.51716983045e-10 -3.21746307889e-06)
(1.99872580849 3.61791100665e-10 -2.95228267282e-06)
(1.99872108724 3.10205342496e-10 -2.71273973913e-06)
(1.99871629758 2.75847832126e-10 -2.50698372133e-06)
(1.99871146172 2.50163109468e-10 -2.30023225561e-06)
(1.998706632 2.31988046476e-10 -2.09473369198e-06)
(1.99870181431 2.20408421737e-10 -1.90500901959e-06)
(1.99869698917 2.08833947772e-10 -1.77160936921e-06)
(1.9986921817 1.98988709016e-10 -1.61169143972e-06)
(1.99868740463 1.88844936109e-10 -1.4709074077e-06)
(1.99868264309 1.77962904104e-10 -1.35030510902e-06)
(1.99867789354 1.6902134593e-10 -1.24202130122e-06)
(1.99867316044 1.62842680875e-10 -1.12481627183e-06)
(1.99866846149 1.79638766106e-10 -1.01765921638e-06)
(1.99866380163 1.80882975546e-10 -9.20976016697e-07)
(1.99865915965 6.99139245468e-10 -8.38974974993e-07)
(1.99865454013 5.15978773043e-10 -7.5319191772e-07)
(1.99864994292 4.39206420443e-10 -6.77719248824e-07)
(1.9986453635 3.95340179559e-10 -6.03934583795e-07)
(1.99864080304 3.61944731002e-10 -5.37224297158e-07)
(1.99863625692 3.33005578545e-10 -4.73510206936e-07)
(1.99863172341 3.05860480128e-10 -4.16001358233e-07)
(1.99862719802 2.80913831992e-10 -3.62246330139e-07)
(1.99862267967 2.60460626089e-10 -3.12936390733e-07)
(1.99861816769 2.66055104858e-10 -2.66788752113e-07)
(1.99861365808 2.48848057888e-10 -2.23698865962e-07)
(1.99860914882 2.32456110502e-10 -1.83889613516e-07)
(1.99860463792 2.44479254221e-10 -1.47045542332e-07)
(1.99860012364 2.34293249952e-10 -1.12451579742e-07)
(1.9985956034 2.48222896321e-10 -8.08469304059e-08)
(1.99859107523 2.41370553068e-10 -5.08288881749e-08)
(1.99858653762 3.0704888187e-10 -2.44027864994e-08)
(1.99858198791 3.41948161532e-10 1.01679025376e-09)
(1.99857742554 3.42379456642e-10 2.35448280711e-08)
(1.99857285254 3.37337727376e-10 4.33146219951e-08)
(1.99856827103 3.56307311515e-10 6.09391969676e-08)
(1.99856368177 3.50051800105e-10 7.59499772165e-08)
(1.99855908536 3.40511813878e-10 8.92923041869e-08)
(1.99855448238 3.54702058821e-10 1.00712571188e-07)
(1.99854987396 3.42435098125e-10 1.10994419669e-07)
(1.99854526036 3.26351537102e-10 1.1950994421e-07)
(1.9985406413 3.10298642314e-10 1.27102321391e-07)
(1.99853601718 3.09150611637e-10 1.33480880914e-07)
(1.99853138903 2.76844286999e-10 1.39348955271e-07)
(1.99852675709 2.53254232272e-10 1.43965311459e-07)
(1.99852212095 2.4106441223e-10 1.48107860794e-07)
(1.99851748097 2.59719684886e-10 1.51430866577e-07)
(1.99851283817 2.52776992657e-10 1.54647881823e-07)
(1.99850819272 2.46695801995e-10 1.56935546678e-07)
(1.99850354424 2.65161980897e-10 1.59026959061e-07)
(1.99849889302 2.54621386413e-10 1.60614351732e-07)
(1.99849424003 2.43339480754e-10 1.62300390395e-07)
(1.99848958543 2.41661188613e-10 1.6326916312e-07)
(1.99848492866 2.38754601987e-10 1.64282496934e-07)
(1.99848027003 -2.10172819312e-10 1.64923636012e-07)
(1.99847561045 1.32914904636e-11 1.65782262506e-07)
(1.99847094998 1.3178752498e-10 1.66085286262e-07)
(1.99846628807 1.59441421303e-10 1.66505529493e-07)
(1.99846162491 1.71368601064e-10 1.66647804355e-07)
(1.99845696136 2.00548973806e-10 1.6711727525e-07)
(1.99845229748 1.91586508942e-10 1.67058237483e-07)
(1.99844763271 1.80151638135e-10 1.67139495098e-07)
(1.99844296751 1.70798848251e-10 1.66796383744e-07)
(1.99843830336 1.62497154084e-10 1.66088929704e-07)
(1.9984336423 1.54163434555e-10 1.62827354178e-07)
(1.99842899428 1.45464090094e-10 1.5352829232e-07)
(1.99842436346 1.38048601379e-10 1.22000953554e-07)
(1.9984200141 1.50770375274e-10 5.39997534127e-08)
(1.99841463476 1.36873144125e-10 -2.7681616319e-07)
(1.86117217746 -1.00247411219e-10 -0.00104641487748)
(1.86248099327 -7.48413649995e-11 -0.00110904681065)
(1.86356845695 -6.45275941202e-11 -0.00104100990133)
(1.86456262902 -5.77189170089e-11 -0.000930793816515)
(1.86545767028 -5.73039449855e-11 -0.000830535052135)
(1.86624923464 -4.55949484378e-10 -0.000741094469989)
(1.86694831871 -2.91029260613e-10 -0.000660320914813)
(1.86756611816 -2.80238220486e-10 -0.000588065930101)
(1.86811168828 -2.24242651755e-10 -0.000523793491484)
(1.86859307758 -1.79335289922e-10 -0.000466662820503)
(1.86901756753 -1.4329918074e-10 -0.000415867758726)
(1.8693916353 -1.09786718168e-10 -0.000370700849449)
(1.86972102517 -4.40089719599e-10 -0.000330533474626)
(1.87001083701 -3.99890340436e-10 -0.00029479446102)
(1.8702655892 -3.25337886114e-10 -0.000263004519474)
(1.87048929523 -1.74072972212e-10 -0.000234713407395)
(1.87068551572 -1.80734394322e-10 -0.00020953612057)
(1.87085740669 -1.43761323777e-10 -0.000187122393004)
(1.87100777014 -1.44495756061e-11 -0.000167164198561)
(1.87113909373 1.41074098561e-11 -0.000149388229729)
(1.87125358252 -4.07906083858e-10 -0.00013355522706)
(1.8713531997 -3.31536039337e-10 -0.00011944319684)
(1.87143967626 -2.77816045232e-10 -0.000106876298676)
(1.87151454631 -2.32111317941e-10 -9.5667375204e-05)
(1.87157919185 -1.94592965142e-10 -8.56638015244e-05)
(1.87163482138 -1.71971647091e-10 -7.67485220545e-05)
(1.87168250196 -1.55102767059e-10 -6.88045265391e-05)
(1.87172318343 -1.37924850846e-10 -6.17211524561e-05)
(1.87175770995 -1.78274802591e-10 -5.53978767424e-05)
(1.87178683096 -2.00883185645e-10 -4.97517220537e-05)
(1.87181120905 -1.20200983047e-10 -4.47096300123e-05)
(1.87183143037 -1.6876464867e-10 -4.02061297537e-05)
(1.87184801312 -1.19111897047e-10 -3.61822685007e-05)
(1.87186141558 -6.93806927975e-11 -3.2585491787e-05)
(1.87187204304 2.06766465095e-12 -2.93685723556e-05)
(1.87188025178 -7.37869142827e-12 -2.64900088196e-05)
(1.8718863615 -3.11809681377e-11 -2.39167126131e-05)
(1.87189065419 9.04752092693e-11 -2.16104533233e-05)
(1.87189337728 1.14318496989e-10 -1.95437478948e-05)
(1.87189474145 7.1659019719e-11 -1.76944245581e-05)
(1.87189495385 -2.03027412332e-10 -1.60380009459e-05)
(1.8718941777 -1.18525562672e-11 -1.45536942496e-05)
(1.87189254593 -1.54521339994e-12 -1.32165485577e-05)
(1.87189021361 3.62088418511e-11 -1.19919087177e-05)
(1.87188729001 6.80538780211e-11 -1.09020736058e-05)
(1.87188386327 8.79282461936e-11 -9.92006589474e-06)
(1.87188001892 9.82330952724e-11 -9.05447193531e-06)
(1.87187583002 1.02100506165e-10 -8.26994654437e-06)
(1.87187136801 1.01884129687e-10 -7.5548092941e-06)
(1.8718666918 9.91613594289e-11 -6.9060310141e-06)
(1.87186184979 9.49753319244e-11 -6.31841991891e-06)
(1.87185688419 9.00150295748e-11 -5.78513637459e-06)
(1.87185183115 8.47418598909e-11 -5.30095302502e-06)
(1.87184672062 7.9902398364e-11 -4.86071897288e-06)
(1.87184157944 8.64676677716e-11 -4.45877889028e-06)
(1.87183642813 3.05947297187e-10 -4.09253225545e-06)
(1.87183128311 3.58734563796e-10 -3.75860067051e-06)
(1.87182616337 3.56853919942e-10 -3.4497773063e-06)
(1.8718210748 3.38338525137e-10 -3.17417119488e-06)
(1.87181601794 3.15815408632e-10 -2.92647010672e-06)
(1.87181100277 2.93461833246e-10 -2.68830820246e-06)
(1.87180606629 2.79253654735e-10 -2.45350640899e-06)
(1.87180119876 2.72846544465e-10 -2.23752451342e-06)
(1.87179638641 2.57776926518e-10 -2.06388441827e-06)
(1.87179164565 2.50603835331e-10 -1.88286258259e-06)
(1.87178697248 2.33881707058e-10 -1.72158874938e-06)
(1.87178235221 2.16387022012e-10 -1.57899050919e-06)
(1.87177778099 2.1184776659e-10 -1.45268923376e-06)
(1.87177325696 2.09683465302e-10 -1.31583219185e-06)
(1.87176879191 2.86924969133e-10 -1.1907511681e-06)
(1.87176438852 2.23871846188e-10 -1.07502101779e-06)
(1.87176002618 4.11214503156e-10 -9.79677789181e-07)
(1.87175570581 4.67053283942e-10 -8.79840661008e-07)
(1.87175142297 4.71685848362e-10 -7.92182376012e-07)
(1.87174717348 4.51355209219e-10 -7.0295582863e-07)
(1.87174295698 4.25058305261e-10 -6.26179034691e-07)
(1.87173876719 3.98617207577e-10 -5.50257339012e-07)
(1.87173460126 3.65688485354e-10 -4.83693876902e-07)
(1.87173045439 3.35221579395e-10 -4.20829418199e-07)
(1.87172632386 3.1441317337e-10 -3.62650750326e-07)
(1.87172220905 3.75698452623e-10 -3.08691772425e-07)